# Forces     
# CofR       : (0.000000e+00 0.000000e+00 0.000000e+00)
# Time       forces(pressure viscous porous)	moments(pressure viscous porous)
0.04         	((3.858745e+00 -3.320863e-02 2.414460e-18) (1.439213e+00 1.026430e-01 -6.910808e-18) (0.000000e+00 0.000000e+00 0.000000e+00)) ((8.302157e-03 9.646863e-01 -4.380389e-01) (-2.566075e-02 3.598034e-01 -2.417630e-02) (0.000000e+00 0.000000e+00 0.000000e+00))
0.08         	((1.443958e+00 3.015453e-01 1.358307e-18) (9.420504e-01 7.753578e-02 -3.918626e-18) (0.000000e+00 0.000000e+00 0.000000e+00)) ((-7.538634e-02 3.609894e-01 -2.108448e-01) (-1.938394e-02 2.355126e-01 1.873532e-02) (0.000000e+00 0.000000e+00 0.000000e+00))
0.12         	((2.402938e-01 6.262525e-01 1.854475e-18) (7.854066e-01 3.691430e-02 -3.317731e-18) (0.000000e+00 0.000000e+00 0.000000e+00)) ((-1.565631e-01 6.007346e-02 -8.098057e-02) (-9.228575e-03 1.963516e-01 5.152202e-02) (0.000000e+00 0.000000e+00 0.000000e+00))
0.16         	((-9.305501e-01 1.185710e+00 3.749911e-18) (7.222973e-01 -4.117551e-02 -3.323253e-18) (0.000000e+00 0.000000e+00 0.000000e+00)) ((-2.964274e-01 -2.326375e-01 7.729166e-02) (1.029388e-02 1.805743e-01 9.815081e-02) (0.000000e+00 0.000000e+00 0.000000e+00))
0.2          	((-2.461692e+00 2.180001e+00 7.811785e-18) (7.025703e-01 -1.861425e-01 -3.857609e-18) (0.000000e+00 0.000000e+00 0.000000e+00)) ((-5.450003e-01 -6.154230e-01 3.085225e-01) (4.653562e-02 1.756426e-01 1.678746e-01) (0.000000e+00 0.000000e+00 0.000000e+00))
0.24         	((-4.686611e+00 3.836930e+00 1.573935e-17) (7.008576e-01 -4.493985e-01 -5.261782e-18) (0.000000e+00 0.000000e+00 0.000000e+00)) ((-9.592326e-01 -1.171653e+00 6.820053e-01) (1.123496e-01 1.752144e-01 2.753045e-01) (0.000000e+00 0.000000e+00 0.000000e+00))
0.28         	((-7.958537e+00 6.761685e+00 2.989683e-17) (6.752442e-01 -9.059383e-01 -7.764710e-18) (0.000000e+00 0.000000e+00 0.000000e+00)) ((-1.690421e+00 -1.989634e+00 1.309846e+00) (2.264846e-01 1.688110e-01 4.396957e-01) (0.000000e+00 0.000000e+00 0.000000e+00))
0.32         	((-1.236863e+01 1.183369e+01 5.108602e-17) (5.022017e-01 -1.634571e+00 -9.938825e-18) (0.000000e+00 0.000000e+00 0.000000e+00)) ((-2.958423e+00 -3.092159e+00 2.241181e+00) (4.086427e-01 1.255504e-01 6.667072e-01) (0.000000e+00 0.000000e+00 0.000000e+00))
0.36         	((-1.574941e+01 2.008927e+01 7.050582e-17) (-1.162037e-01 -2.682323e+00 -5.689985e-18) (0.000000e+00 0.000000e+00 0.000000e+00)) ((-5.022317e+00 -3.937353e+00 2.985775e+00) (6.705806e-01 -2.905092e-02 8.801379e-01) (0.000000e+00 0.000000e+00 0.000000e+00))
0.4          	((-1.166866e+01 3.222130e+01 6.567316e-17) (-1.333282e+00 -4.080840e+00 1.295207e-17) (0.000000e+00 0.000000e+00 0.000000e+00)) ((-8.055325e+00 -2.917164e+00 2.196293e+00) (1.020210e+00 -3.333205e-01 9.307758e-01) (0.000000e+00 0.000000e+00 0.000000e+00))
0.44         	((-5.823072e+00 2.801624e+01 6.067921e-17) (-2.255354e+00 -5.287677e+00 1.840633e-17) (0.000000e+00 0.000000e+00 0.000000e+00)) ((-7.004060e+00 -1.455768e+00 2.872046e+00) (1.321919e+00 -5.638386e-01 9.590706e-01) (0.000000e+00 0.000000e+00 0.000000e+00))
0.48         	((7.359767e+00 3.182944e+01 4.173872e-17) (-2.075579e+00 -5.497233e+00 3.503692e-17) (0.000000e+00 0.000000e+00 0.000000e+00)) ((-7.957359e+00 1.839942e+00 2.158145e+00) (1.374308e+00 -5.188948e-01 9.851961e-01) (0.000000e+00 0.000000e+00 0.000000e+00))
0.52         	((8.877677e+00 3.085930e+01 2.201235e-18) (-1.818790e+00 -5.682197e+00 6.297798e-17) (0.000000e+00 0.000000e+00 0.000000e+00)) ((-7.714824e+00 2.219419e+00 1.513333e+00) (1.420549e+00 -4.546974e-01 9.767830e-01) (0.000000e+00 0.000000e+00 0.000000e+00))
0.56         	((6.563182e+00 4.723284e+01 -1.379883e-16) (-1.871124e+00 -6.115847e+00 1.578796e-16) (0.000000e+00 0.000000e+00 0.000000e+00)) ((-1.180821e+01 1.640796e+00 -4.340318e+00) (1.528962e+00 -4.677811e-01 1.024129e+00) (0.000000e+00 0.000000e+00 0.000000e+00))
0.6          	((1.511934e-01 6.128736e+01 -2.163584e-16) (-2.268739e+00 -6.205330e+00 2.125449e-16) (0.000000e+00 0.000000e+00 0.000000e+00)) ((-1.532184e+01 3.779834e-02 -6.752554e+00) (1.551333e+00 -5.671848e-01 1.161504e+00) (0.000000e+00 0.000000e+00 0.000000e+00))
0.64         	((-3.154695e+00 6.989593e+01 -2.349641e-16) (-2.785863e+00 -5.333815e+00 2.151181e-16) (0.000000e+00 0.000000e+00 0.000000e+00)) ((-1.747398e+01 -7.886737e-01 -1.035498e+01) (1.333454e+00 -6.964657e-01 1.013347e+00) (0.000000e+00 0.000000e+00 0.000000e+00))
0.68         	((-5.820717e+00 7.133986e+01 -2.466978e-16) (-2.966152e+00 -4.551097e+00 2.065074e-16) (0.000000e+00 0.000000e+00 0.000000e+00)) ((-1.783497e+01 -1.455179e+00 -1.276562e+01) (1.137774e+00 -7.415381e-01 8.457858e-01) (0.000000e+00 0.000000e+00 0.000000e+00))
0.72         	((-7.234877e+00 7.120885e+01 -2.741206e-16) (-2.829881e+00 -4.342956e+00 2.152753e-16) (0.000000e+00 0.000000e+00 0.000000e+00)) ((-1.780221e+01 -1.808719e+00 -1.227702e+01) (1.085739e+00 -7.074701e-01 9.674256e-01) (0.000000e+00 0.000000e+00 0.000000e+00))
0.76         	((-6.238585e+00 6.913852e+01 -2.586796e-16) (-2.672322e+00 -4.830650e+00 2.121726e-16) (0.000000e+00 0.000000e+00 0.000000e+00)) ((-1.728463e+01 -1.559646e+00 -8.702144e+00) (1.207663e+00 -6.680806e-01 1.273527e+00) (0.000000e+00 0.000000e+00 0.000000e+00))
0.8          	((-8.186642e+00 6.929811e+01 -2.202190e-16) (-2.768430e+00 -5.237263e+00 1.951339e-16) (0.000000e+00 0.000000e+00 0.000000e+00)) ((-1.732453e+01 -2.046660e+00 -5.936246e+00) (1.309316e+00 -6.921074e-01 1.398652e+00) (0.000000e+00 0.000000e+00 0.000000e+00))
0.84         	((-8.138773e+00 7.114358e+01 -2.033801e-16) (-2.936410e+00 -5.181934e+00 1.808395e-16) (0.000000e+00 0.000000e+00 0.000000e+00)) ((-1.778590e+01 -2.034693e+00 -4.498748e+00) (1.295484e+00 -7.341025e-01 1.467412e+00) (0.000000e+00 0.000000e+00 0.000000e+00))
0.88         	((-8.465681e+00 7.178148e+01 -2.174203e-16) (-3.029756e+00 -5.026431e+00 1.853280e-16) (0.000000e+00 0.000000e+00 0.000000e+00)) ((-1.794537e+01 -2.116420e+00 -3.234386e+00) (1.256608e+00 -7.574390e-01 1.689856e+00) (0.000000e+00 0.000000e+00 0.000000e+00))
0.92         	((-8.241163e+00 7.049314e+01 -2.384118e-16) (-3.054430e+00 -5.124728e+00 1.983766e-16) (0.000000e+00 0.000000e+00 0.000000e+00)) ((-1.762328e+01 -2.060291e+00 -1.557546e+00) (1.281182e+00 -7.636075e-01 2.014781e+00) (0.000000e+00 0.000000e+00 0.000000e+00))
0.96         	((-7.806492e+00 6.956467e+01 -2.356460e-16) (-3.071215e+00 -5.290494e+00 1.990030e-16) (0.000000e+00 0.000000e+00 0.000000e+00)) ((-1.739117e+01 -1.951623e+00 -4.405328e-01) (1.322623e+00 -7.678038e-01 2.216619e+00) (0.000000e+00 0.000000e+00 0.000000e+00))
1            	((-7.676797e+00 6.988896e+01 -2.148292e-16) (-3.083231e+00 -5.236695e+00 1.857319e-16) (0.000000e+00 0.000000e+00 0.000000e+00)) ((-1.747224e+01 -1.919199e+00 -2.163609e-01) (1.309174e+00 -7.708078e-01 2.211650e+00) (0.000000e+00 0.000000e+00 0.000000e+00))
1.04         	((-7.064001e+00 7.074112e+01 -2.031775e-16) (-3.053333e+00 -4.990063e+00 1.753336e-16) (0.000000e+00 0.000000e+00 0.000000e+00)) ((-1.768528e+01 -1.766000e+00 5.547391e-04) (1.247516e+00 -7.633333e-01 2.166716e+00) (0.000000e+00 0.000000e+00 0.000000e+00))
1.08         	((-5.911659e+00 7.076549e+01 -2.128325e-16) (-2.962916e+00 -4.706392e+00 1.786355e-16) (0.000000e+00 0.000000e+00 0.000000e+00)) ((-1.769137e+01 -1.477915e+00 1.055495e+00) (1.176598e+00 -7.407291e-01 2.263390e+00) (0.000000e+00 0.000000e+00 0.000000e+00))
1.12         	((-4.932025e+00 6.946169e+01 -2.260227e-16) (-2.891946e+00 -4.414215e+00 1.855813e-16) (0.000000e+00 0.000000e+00 0.000000e+00)) ((-1.736542e+01 -1.233006e+00 2.574294e+00) (1.103554e+00 -7.229864e-01 2.459060e+00) (0.000000e+00 0.000000e+00 0.000000e+00))
1.16         	((-4.790433e+00 6.827927e+01 -2.225490e-16) (-2.898366e+00 -4.020738e+00 1.821297e-16) (0.000000e+00 0.000000e+00 0.000000e+00)) ((-1.706982e+01 -1.197608e+00 3.664813e+00) (1.005185e+00 -7.245915e-01 2.580836e+00) (0.000000e+00 0.000000e+00 0.000000e+00))
1.2          	((-5.051463e+00 6.669232e+01 -2.078886e-16) (-2.996734e+00 -3.591617e+00 1.705453e-16) (0.000000e+00 0.000000e+00 0.000000e+00)) ((-1.667308e+01 -1.262866e+00 3.924522e+00) (8.979043e-01 -7.491834e-01 2.555956e+00) (0.000000e+00 0.000000e+00 0.000000e+00))
1.24         	((-4.604041e+00 6.522726e+01 -1.998515e-16) (-3.155222e+00 -3.399776e+00 1.631454e-16) (0.000000e+00 0.000000e+00 0.000000e+00)) ((-1.630682e+01 -1.151010e+00 3.416188e+00) (8.499441e-01 -7.888055e-01 2.431003e+00) (0.000000e+00 0.000000e+00 0.000000e+00))
1.28         	((-2.992814e+00 6.511925e+01 -2.019467e-16) (-3.330714e+00 -3.534117e+00 1.626216e-16) (0.000000e+00 0.000000e+00 0.000000e+00)) ((-1.627981e+01 -7.482035e-01 2.367618e+00) (8.835292e-01 -8.326785e-01 2.259069e+00) (0.000000e+00 0.000000e+00 0.000000e+00))
1.32         	((-9.890857e-01 6.611712e+01 -2.029030e-16) (-3.492807e+00 -3.771405e+00 1.619171e-16) (0.000000e+00 0.000000e+00 0.000000e+00)) ((-1.652928e+01 -2.472714e-01 9.757021e-01) (9.428513e-01 -8.732018e-01 2.080938e+00) (0.000000e+00 0.000000e+00 0.000000e+00))
1.36         	((2.803026e-01 6.751954e+01 -1.966627e-16) (-3.595186e+00 -3.851647e+00 1.571087e-16) (0.000000e+00 0.000000e+00 0.000000e+00)) ((-1.687989e+01 7.007565e-02 -4.621637e-02) (9.629116e-01 -8.987965e-01 1.937522e+00) (0.000000e+00 0.000000e+00 0.000000e+00))
1.4          	((6.968733e-01 6.896732e+01 -1.887145e-16) (-3.612088e+00 -3.766117e+00 1.516531e-16) (0.000000e+00 0.000000e+00 0.000000e+00)) ((-1.724183e+01 1.742183e-01 -4.746024e-01) (9.415292e-01 -9.030219e-01 1.844651e+00) (0.000000e+00 0.000000e+00 0.000000e+00))
1.44         	((7.063674e-01 7.029015e+01 -1.877055e-16) (-3.589385e+00 -3.681657e+00 1.511851e-16) (0.000000e+00 0.000000e+00 0.000000e+00)) ((-1.757254e+01 1.765918e-01 -7.744414e-01) (9.204143e-01 -8.973462e-01 1.784940e+00) (0.000000e+00 0.000000e+00 0.000000e+00))
1.48         	((6.462556e-01 7.099392e+01 -1.929021e-16) (-3.576397e+00 -3.687931e+00 1.548820e-16) (0.000000e+00 0.000000e+00 0.000000e+00)) ((-1.774848e+01 1.615639e-01 -1.264671e+00) (9.219827e-01 -8.940993e-01 1.730107e+00) (0.000000e+00 0.000000e+00 0.000000e+00))
1.52         	((3.064544e-01 7.139457e+01 -1.970778e-16) (-3.586650e+00 -3.743518e+00 1.577607e-16) (0.000000e+00 0.000000e+00 0.000000e+00)) ((-1.784864e+01 7.661361e-02 -2.049359e+00) (9.358794e-01 -8.966624e-01 1.659655e+00) (0.000000e+00 0.000000e+00 0.000000e+00))
1.56         	((-4.793354e-01 7.164061e+01 -1.965288e-16) (-3.612878e+00 -3.770664e+00 1.572449e-16) (0.000000e+00 0.000000e+00 0.000000e+00)) ((-1.791015e+01 -1.198338e-01 -3.053634e+00) (9.426659e-01 -9.032195e-01 1.565873e+00) (0.000000e+00 0.000000e+00 0.000000e+00))
1.6          	((-1.506045e+00 7.169618e+01 -1.943033e-16) (-3.638435e+00 -3.773588e+00 1.556524e-16) (0.000000e+00 0.000000e+00 0.000000e+00)) ((-1.792404e+01 -3.765112e-01 -4.119456e+00) (9.433971e-01 -9.096088e-01 1.464553e+00) (0.000000e+00 0.000000e+00 0.000000e+00))
1.64         	((-2.560375e+00 7.138930e+01 -1.949021e-16) (-3.655824e+00 -3.809387e+00 1.562737e-16) (0.000000e+00 0.000000e+00 0.000000e+00)) ((-1.784732e+01 -6.400938e-01 -5.194598e+00) (9.523467e-01 -9.139560e-01 1.370926e+00) (0.000000e+00 0.000000e+00 0.000000e+00))
1.68         	((-3.602509e+00 7.063345e+01 -1.980467e-16) (-3.671633e+00 -3.900050e+00 1.588256e-16) (0.000000e+00 0.000000e+00 0.000000e+00)) ((-1.765836e+01 -9.006273e-01 -6.386585e+00) (9.750124e-01 -9.179084e-01 1.280990e+00) (0.000000e+00 0.000000e+00 0.000000e+00))
1.72         	((-4.805693e+00 6.957462e+01 -2.002063e-16) (-3.702434e+00 -4.034262e+00 1.606158e-16) (0.000000e+00 0.000000e+00 0.000000e+00)) ((-1.739365e+01 -1.201423e+00 -7.923042e+00) (1.008565e+00 -9.256084e-01 1.162276e+00) (0.000000e+00 0.000000e+00 0.000000e+00))
1.76         	((-6.205520e+00 6.800133e+01 -2.002731e-16) (-3.735426e+00 -4.225951e+00 1.607988e-16) (0.000000e+00 0.000000e+00 0.000000e+00)) ((-1.700033e+01 -1.551380e+00 -9.939374e+00) (1.056488e+00 -9.338564e-01 9.919750e-01) (0.000000e+00 0.000000e+00 0.000000e+00))
1.8          	((-7.380447e+00 6.649235e+01 -2.005074e-16) (-3.718843e+00 -4.552211e+00 1.611983e-16) (0.000000e+00 0.000000e+00 0.000000e+00)) ((-1.662309e+01 -1.845112e+00 -1.211291e+01) (1.138053e+00 -9.297108e-01 7.790650e-01) (0.000000e+00 0.000000e+00 0.000000e+00))
1.84         	((-8.235211e+00 6.568293e+01 -2.031296e-16) (-3.701209e+00 -5.026016e+00 1.638343e-16) (0.000000e+00 0.000000e+00 0.000000e+00)) ((-1.642073e+01 -2.058803e+00 -1.369441e+01) (1.256504e+00 -9.253023e-01 5.553821e-01) (0.000000e+00 0.000000e+00 0.000000e+00))
1.88         	((-9.263932e+00 6.478410e+01 -2.072631e-16) (-3.763310e+00 -5.314912e+00 1.680890e-16) (0.000000e+00 0.000000e+00 0.000000e+00)) ((-1.619603e+01 -2.315983e+00 -1.380853e+01) (1.328728e+00 -9.408275e-01 4.544508e-01) (0.000000e+00 0.000000e+00 0.000000e+00))
1.92         	((-1.058050e+01 6.358070e+01 -2.098888e-16) (-3.809044e+00 -5.197735e+00 1.712810e-16) (0.000000e+00 0.000000e+00 0.000000e+00)) ((-1.589517e+01 -2.645126e+00 -1.234357e+01) (1.299434e+00 -9.522611e-01 5.755006e-01) (0.000000e+00 0.000000e+00 0.000000e+00))
1.96         	((-1.197573e+01 6.147158e+01 -2.102247e-16) (-3.808978e+00 -4.956546e+00 1.726453e-16) (0.000000e+00 0.000000e+00 0.000000e+00)) ((-1.536790e+01 -2.993931e+00 -1.011203e+01) (1.239137e+00 -9.522446e-01 8.085474e-01) (0.000000e+00 0.000000e+00 0.000000e+00))
2            	((-1.310396e+01 5.816614e+01 -2.096618e-16) (-3.793584e+00 -4.961066e+00 1.735735e-16) (0.000000e+00 0.000000e+00 0.000000e+00)) ((-1.454153e+01 -3.275990e+00 -8.196012e+00) (1.240267e+00 -9.483961e-01 1.017873e+00) (0.000000e+00 0.000000e+00 0.000000e+00))
2.04         	((-1.376617e+01 5.696102e+01 -2.099010e-16) (-3.715311e+00 -5.313650e+00 1.756096e-16) (0.000000e+00 0.000000e+00 0.000000e+00)) ((-1.424026e+01 -3.441542e+00 -7.235398e+00) (1.328412e+00 -9.288278e-01 1.175661e+00) (0.000000e+00 0.000000e+00 0.000000e+00))
2.08         	((-1.399820e+01 5.767147e+01 -2.110217e-16) (-3.644009e+00 -5.865078e+00 1.789776e-16) (0.000000e+00 0.000000e+00 0.000000e+00)) ((-1.441787e+01 -3.499551e+00 -6.378335e+00) (1.466269e+00 -9.110022e-01 1.298772e+00) (0.000000e+00 0.000000e+00 0.000000e+00))
2.12         	((-1.431311e+01 5.845510e+01 -2.127863e-16) (-3.663508e+00 -6.413537e+00 1.834142e-16) (0.000000e+00 0.000000e+00 0.000000e+00)) ((-1.461377e+01 -3.578278e+00 -4.838796e+00) (1.603384e+00 -9.158771e-01 1.442681e+00) (0.000000e+00 0.000000e+00 0.000000e+00))
2.16         	((-1.486464e+01 5.835985e+01 -2.144048e-16) (-3.688789e+00 -6.828738e+00 1.874378e-16) (0.000000e+00 0.000000e+00 0.000000e+00)) ((-1.458996e+01 -3.716161e+00 -3.206058e+00) (1.707185e+00 -9.221972e-01 1.610663e+00) (0.000000e+00 0.000000e+00 0.000000e+00))
2.2          	((-1.491897e+01 5.608545e+01 -2.135395e-16) (-3.599175e+00 -7.083660e+00 1.882735e-16) (0.000000e+00 0.000000e+00 0.000000e+00)) ((-1.402136e+01 -3.729743e+00 -2.251202e+00) (1.770915e+00 -8.997938e-01 1.716866e+00) (0.000000e+00 0.000000e+00 0.000000e+00))
2.24         	((-1.410636e+01 5.225694e+01 -2.092413e-16) (-3.454949e+00 -7.340772e+00 1.857328e-16) (0.000000e+00 0.000000e+00 0.000000e+00)) ((-1.306424e+01 -3.526590e+00 -2.270975e+00) (1.835193e+00 -8.637372e-01 1.703248e+00) (0.000000e+00 0.000000e+00 0.000000e+00))
2.28         	((-1.293274e+01 4.945414e+01 -2.034779e-16) (-3.324224e+00 -7.726496e+00 1.826568e-16) (0.000000e+00 0.000000e+00 0.000000e+00)) ((-1.236354e+01 -3.233185e+00 -2.858155e+00) (1.931624e+00 -8.310561e-01 1.618461e+00) (0.000000e+00 0.000000e+00 0.000000e+00))
2.32         	((-1.222930e+01 4.858460e+01 -1.998506e-16) (-3.258040e+00 -8.083174e+00 1.822995e-16) (0.000000e+00 0.000000e+00 0.000000e+00)) ((-1.214615e+01 -3.057325e+00 -3.154870e+00) (2.020794e+00 -8.145100e-01 1.553495e+00) (0.000000e+00 0.000000e+00 0.000000e+00))
2.36         	((-1.187878e+01 4.812697e+01 -1.989408e-16) (-3.250455e+00 -8.234330e+00 1.839715e-16) (0.000000e+00 0.000000e+00 0.000000e+00)) ((-1.203174e+01 -2.969694e+00 -2.898798e+00) (2.058583e+00 -8.126137e-01 1.561326e+00) (0.000000e+00 0.000000e+00 0.000000e+00))
2.4          	((-1.154367e+01 4.700711e+01 -1.984573e-16) (-3.232860e+00 -8.260311e+00 1.850192e-16) (0.000000e+00 0.000000e+00 0.000000e+00)) ((-1.175178e+01 -2.885917e+00 -2.557658e+00) (2.065078e+00 -8.082150e-01 1.605656e+00) (0.000000e+00 0.000000e+00 0.000000e+00))
2.44         	((-1.108953e+01 4.573996e+01 -1.969669e-16) (-3.198321e+00 -8.299103e+00 1.845587e-16) (0.000000e+00 0.000000e+00 0.000000e+00)) ((-1.143499e+01 -2.772383e+00 -2.466386e+00) (2.074776e+00 -7.995803e-01 1.630647e+00) (0.000000e+00 0.000000e+00 0.000000e+00))
2.48         	((-1.065447e+01 4.467102e+01 -1.950392e-16) (-3.168779e+00 -8.357331e+00 1.837011e-16) (0.000000e+00 0.000000e+00 0.000000e+00)) ((-1.116775e+01 -2.663619e+00 -2.466718e+00) (2.089333e+00 -7.921947e-01 1.638680e+00) (0.000000e+00 0.000000e+00 0.000000e+00))
2.52         	((-1.030278e+01 4.382753e+01 -1.932519e-16) (-3.153374e+00 -8.408692e+00 1.832432e-16) (0.000000e+00 0.000000e+00 0.000000e+00)) ((-1.095688e+01 -2.575695e+00 -2.411884e+00) (2.102173e+00 -7.883436e-01 1.649519e+00) (0.000000e+00 0.000000e+00 0.000000e+00))
2.56         	((-1.007177e+01 4.316028e+01 -1.915954e-16) (-3.149143e+00 -8.453323e+00 1.830769e-16) (0.000000e+00 0.000000e+00 0.000000e+00)) ((-1.079007e+01 -2.517942e+00 -2.338581e+00) (2.113331e+00 -7.872859e-01 1.664722e+00) (0.000000e+00 0.000000e+00 0.000000e+00))
2.6          	((-1.001999e+01 4.270859e+01 -1.902252e-16) (-3.149767e+00 -8.491925e+00 1.830502e-16) (0.000000e+00 0.000000e+00 0.000000e+00)) ((-1.067715e+01 -2.504997e+00 -2.313230e+00) (2.122981e+00 -7.874418e-01 1.676831e+00) (0.000000e+00 0.000000e+00 0.000000e+00))
2.64         	((-1.009105e+01 4.238422e+01 -1.894189e-16) (-3.148973e+00 -8.519267e+00 1.831936e-16) (0.000000e+00 0.000000e+00 0.000000e+00)) ((-1.059605e+01 -2.522764e+00 -2.327542e+00) (2.129817e+00 -7.872434e-01 1.686217e+00) (0.000000e+00 0.000000e+00 0.000000e+00))
2.68         	((-1.017981e+01 4.204989e+01 -1.892050e-16) (-3.143116e+00 -8.540811e+00 1.835165e-16) (0.000000e+00 0.000000e+00 0.000000e+00)) ((-1.051247e+01 -2.544953e+00 -2.360361e+00) (2.135203e+00 -7.857790e-01 1.694898e+00) (0.000000e+00 0.000000e+00 0.000000e+00))
2.72         	((-1.025519e+01 4.173319e+01 -1.892037e-16) (-3.134337e+00 -8.561639e+00 1.838608e-16) (0.000000e+00 0.000000e+00 0.000000e+00)) ((-1.043330e+01 -2.563797e+00 -2.416083e+00) (2.140410e+00 -7.835842e-01 1.702081e+00) (0.000000e+00 0.000000e+00 0.000000e+00))
2.76         	((-1.036096e+01 4.150557e+01 -1.890788e-16) (-3.126610e+00 -8.578860e+00 1.840630e-16) (0.000000e+00 0.000000e+00 0.000000e+00)) ((-1.037639e+01 -2.590241e+00 -2.502647e+00) (2.144715e+00 -7.816526e-01 1.704644e+00) (0.000000e+00 0.000000e+00 0.000000e+00))
2.8          	((-1.046843e+01 4.133299e+01 -1.888860e-16) (-3.120589e+00 -8.589002e+00 1.841054e-16) (0.000000e+00 0.000000e+00 0.000000e+00)) ((-1.033325e+01 -2.617107e+00 -2.595394e+00) (2.147250e+00 -7.801474e-01 1.704006e+00) (0.000000e+00 0.000000e+00 0.000000e+00))
2.84         	((-1.056284e+01 4.115337e+01 -1.889519e-16) (-3.113840e+00 -8.594293e+00 1.842384e-16) (0.000000e+00 0.000000e+00 0.000000e+00)) ((-1.028834e+01 -2.640709e+00 -2.676210e+00) (2.148573e+00 -7.784601e-01 1.704017e+00) (0.000000e+00 0.000000e+00 0.000000e+00))
2.88         	((-1.064292e+01 4.098089e+01 -1.893144e-16) (-3.105483e+00 -8.599000e+00 1.845111e-16) (0.000000e+00 0.000000e+00 0.000000e+00)) ((-1.024522e+01 -2.660730e+00 -2.757820e+00) (2.149750e+00 -7.763708e-01 1.704926e+00) (0.000000e+00 0.000000e+00 0.000000e+00))
2.92         	((-1.073607e+01 4.084167e+01 -1.897400e-16) (-3.096807e+00 -8.602362e+00 1.847594e-16) (0.000000e+00 0.000000e+00 0.000000e+00)) ((-1.021042e+01 -2.684018e+00 -2.857555e+00) (2.150590e+00 -7.742018e-01 1.704374e+00) (0.000000e+00 0.000000e+00 0.000000e+00))
2.96         	((-1.084387e+01 4.073488e+01 -1.900204e-16) (-3.088850e+00 -8.602980e+00 1.848571e-16) (0.000000e+00 0.000000e+00 0.000000e+00)) ((-1.018372e+01 -2.710967e+00 -2.968642e+00) (2.150745e+00 -7.722125e-01 1.701252e+00) (0.000000e+00 0.000000e+00 0.000000e+00))
3            	((-1.094894e+01 4.064417e+01 -1.902637e-16) (-3.081226e+00 -8.601448e+00 1.849003e-16) (0.000000e+00 0.000000e+00 0.000000e+00)) ((-1.016104e+01 -2.737235e+00 -3.076707e+00) (2.150362e+00 -7.703065e-01 1.697203e+00) (0.000000e+00 0.000000e+00 0.000000e+00))
3.04         	((-1.104870e+01 4.057471e+01 -1.906487e-16) (-3.073394e+00 -8.600370e+00 1.850124e-16) (0.000000e+00 0.000000e+00 0.000000e+00)) ((-1.014368e+01 -2.762175e+00 -3.176029e+00) (2.150092e+00 -7.683486e-01 1.693727e+00) (0.000000e+00 0.000000e+00 0.000000e+00))
3.08         	((-1.115109e+01 4.051714e+01 -1.911531e-16) (-3.064752e+00 -8.598080e+00 1.851510e-16) (0.000000e+00 0.000000e+00 0.000000e+00)) ((-1.012928e+01 -2.787774e+00 -3.274827e+00) (2.149520e+00 -7.661881e-01 1.690180e+00) (0.000000e+00 0.000000e+00 0.000000e+00))
3.12         	((-1.126465e+01 4.046158e+01 -1.916308e-16) (-3.056593e+00 -8.593429e+00 1.852369e-16) (0.000000e+00 0.000000e+00 0.000000e+00)) ((-1.011540e+01 -2.816162e+00 -3.378382e+00) (2.148357e+00 -7.641483e-01 1.686223e+00) (0.000000e+00 0.000000e+00 0.000000e+00))
3.16         	((-1.137987e+01 4.041723e+01 -1.920601e-16) (-3.047939e+00 -8.586680e+00 1.852710e-16) (0.000000e+00 0.000000e+00 0.000000e+00)) ((-1.010431e+01 -2.844967e+00 -3.478392e+00) (2.146670e+00 -7.619846e-01 1.682532e+00) (0.000000e+00 0.000000e+00 0.000000e+00))
3.2          	((-1.149198e+01 4.038640e+01 -1.925422e-16) (-3.039370e+00 -8.580128e+00 1.853398e-16) (0.000000e+00 0.000000e+00 0.000000e+00)) ((-1.009660e+01 -2.872995e+00 -3.568924e+00) (2.145032e+00 -7.598424e-01 1.679778e+00) (0.000000e+00 0.000000e+00 0.000000e+00))
3.24         	((-1.159660e+01 4.037185e+01 -1.930933e-16) (-3.030914e+00 -8.571946e+00 1.854390e-16) (0.000000e+00 0.000000e+00 0.000000e+00)) ((-1.009296e+01 -2.899151e+00 -3.654880e+00) (2.142987e+00 -7.577285e-01 1.677628e+00) (0.000000e+00 0.000000e+00 0.000000e+00))
3.28         	((-1.169806e+01 4.036834e+01 -1.936555e-16) (-3.022778e+00 -8.561988e+00 1.855272e-16) (0.000000e+00 0.000000e+00 0.000000e+00)) ((-1.009208e+01 -2.924515e+00 -3.741020e+00) (2.140497e+00 -7.556945e-01 1.675893e+00) (0.000000e+00 0.000000e+00 0.000000e+00))
3.32         	((-1.181304e+01 4.038173e+01 -1.942093e-16) (-3.015654e+00 -8.550317e+00 1.855908e-16) (0.000000e+00 0.000000e+00 0.000000e+00)) ((-1.009543e+01 -2.953259e+00 -3.825853e+00) (2.137579e+00 -7.539135e-01 1.674415e+00) (0.000000e+00 0.000000e+00 0.000000e+00))
3.36         	((-1.191787e+01 4.041680e+01 -1.947761e-16) (-3.008874e+00 -8.538784e+00 1.856651e-16) (0.000000e+00 0.000000e+00 0.000000e+00)) ((-1.010420e+01 -2.979468e+00 -3.908460e+00) (2.134696e+00 -7.522184e-01 1.673271e+00) (0.000000e+00 0.000000e+00 0.000000e+00))
3.4          	((-1.202025e+01 4.046344e+01 -1.953886e-16) (-3.002344e+00 -8.527142e+00 1.857684e-16) (0.000000e+00 0.000000e+00 0.000000e+00)) ((-1.011586e+01 -3.005063e+00 -3.989167e+00) (2.131786e+00 -7.505860e-01 1.672706e+00) (0.000000e+00 0.000000e+00 0.000000e+00))
3.44         	((-1.212860e+01 4.049740e+01 -1.960122e-16) (-2.997525e+00 -8.515034e+00 1.858852e-16) (0.000000e+00 0.000000e+00 0.000000e+00)) ((-1.012435e+01 -3.032151e+00 -4.066086e+00) (2.128759e+00 -7.493813e-01 1.672000e+00) (0.000000e+00 0.000000e+00 0.000000e+00))
3.48         	((-1.224131e+01 4.056096e+01 -1.966253e-16) (-2.994791e+00 -8.502566e+00 1.859942e-16) (0.000000e+00 0.000000e+00 0.000000e+00)) ((-1.014024e+01 -3.060327e+00 -4.135436e+00) (2.125641e+00 -7.486978e-01 1.671428e+00) (0.000000e+00 0.000000e+00 0.000000e+00))
3.52         	((-1.235581e+01 4.061462e+01 -1.972127e-16) (-2.992865e+00 -8.487610e+00 1.860876e-16) (0.000000e+00 0.000000e+00 0.000000e+00)) ((-1.015366e+01 -3.088953e+00 -4.190767e+00) (2.121903e+00 -7.482162e-01 1.670659e+00) (0.000000e+00 0.000000e+00 0.000000e+00))
3.56         	((-1.247566e+01 4.065174e+01 -1.978645e-16) (-2.994451e+00 -8.474126e+00 1.862562e-16) (0.000000e+00 0.000000e+00 0.000000e+00)) ((-1.016293e+01 -3.118916e+00 -4.219345e+00) (2.118532e+00 -7.486128e-01 1.672488e+00) (0.000000e+00 0.000000e+00 0.000000e+00))
3.6          	((-1.260974e+01 4.068453e+01 -1.985219e-16) (-2.999306e+00 -8.459771e+00 1.864478e-16) (0.000000e+00 0.000000e+00 0.000000e+00)) ((-1.017113e+01 -3.152434e+00 -4.229612e+00) (2.114943e+00 -7.498265e-01 1.676259e+00) (0.000000e+00 0.000000e+00 0.000000e+00))
3.64         	((-1.274162e+01 4.073437e+01 -1.990882e-16) (-3.005963e+00 -8.445662e+00 1.865850e-16) (0.000000e+00 0.000000e+00 0.000000e+00)) ((-1.018359e+01 -3.185405e+00 -4.230116e+00) (2.111415e+00 -7.514907e-01 1.680668e+00) (0.000000e+00 0.000000e+00 0.000000e+00))
3.68         	((-1.286152e+01 4.078836e+01 -1.996139e-16) (-3.013603e+00 -8.432969e+00 1.867135e-16) (0.000000e+00 0.000000e+00 0.000000e+00)) ((-1.019709e+01 -3.215381e+00 -4.217301e+00) (2.108242e+00 -7.534007e-01 1.685781e+00) (0.000000e+00 0.000000e+00 0.000000e+00))
3.72         	((-1.296738e+01 4.082623e+01 -2.001348e-16) (-3.023048e+00 -8.420675e+00 1.868731e-16) (0.000000e+00 0.000000e+00 0.000000e+00)) ((-1.020656e+01 -3.241845e+00 -4.185405e+00) (2.105169e+00 -7.557620e-01 1.692204e+00) (0.000000e+00 0.000000e+00 0.000000e+00))
3.76         	((-1.306876e+01 4.084428e+01 -2.006014e-16) (-3.035647e+00 -8.407306e+00 1.870273e-16) (0.000000e+00 0.000000e+00 0.000000e+00)) ((-1.021107e+01 -3.267191e+00 -4.132771e+00) (2.101826e+00 -7.589118e-01 1.699865e+00) (0.000000e+00 0.000000e+00 0.000000e+00))
3.8          	((-1.316569e+01 4.084724e+01 -2.009649e-16) (-3.051669e+00 -8.392970e+00 1.871293e-16) (0.000000e+00 0.000000e+00 0.000000e+00)) ((-1.021181e+01 -3.291422e+00 -4.058236e+00) (2.098242e+00 -7.629172e-01 1.708613e+00) (0.000000e+00 0.000000e+00 0.000000e+00))
3.84         	((-1.325440e+01 4.082759e+01 -2.012473e-16) (-3.070619e+00 -8.379445e+00 1.872128e-16) (0.000000e+00 0.000000e+00 0.000000e+00)) ((-1.020690e+01 -3.313599e+00 -3.959139e+00) (2.094861e+00 -7.676547e-01 1.718833e+00) (0.000000e+00 0.000000e+00 0.000000e+00))
3.88         	((-1.332264e+01 4.078379e+01 -2.014948e-16) (-3.091026e+00 -8.367706e+00 1.873145e-16) (0.000000e+00 0.000000e+00 0.000000e+00)) ((-1.019595e+01 -3.330660e+00 -3.840399e+00) (2.091926e+00 -7.727566e-01 1.730800e+00) (0.000000e+00 0.000000e+00 0.000000e+00))
3.92         	((-1.338698e+01 4.072478e+01 -2.017062e-16) (-3.112394e+00 -8.357142e+00 1.874215e-16) (0.000000e+00 0.000000e+00 0.000000e+00)) ((-1.018120e+01 -3.346746e+00 -3.709297e+00) (2.089285e+00 -7.780985e-01 1.744002e+00) (0.000000e+00 0.000000e+00 0.000000e+00))
3.96         	((-1.343664e+01 4.063607e+01 -2.018344e-16) (-3.134563e+00 -8.346875e+00 1.875023e-16) (0.000000e+00 0.000000e+00 0.000000e+00)) ((-1.015902e+01 -3.359160e+00 -3.570112e+00) (2.086719e+00 -7.836406e-01 1.757659e+00) (0.000000e+00 0.000000e+00 0.000000e+00))
4            	((-1.346769e+01 4.052482e+01 -2.018756e-16) (-3.157310e+00 -8.335600e+00 1.875355e-16) (0.000000e+00 0.000000e+00 0.000000e+00)) ((-1.013120e+01 -3.366923e+00 -3.421275e+00) (2.083900e+00 -7.893276e-01 1.771760e+00) (0.000000e+00 0.000000e+00 0.000000e+00))
4.04         	((-1.348680e+01 4.038475e+01 -2.018788e-16) (-3.179709e+00 -8.324035e+00 1.875599e-16) (0.000000e+00 0.000000e+00 0.000000e+00)) ((-1.009619e+01 -3.371699e+00 -3.264093e+00) (2.081009e+00 -7.949271e-01 1.786614e+00) (0.000000e+00 0.000000e+00 0.000000e+00))
4.08         	((-1.351133e+01 4.020132e+01 -2.018752e-16) (-3.200658e+00 -8.313336e+00 1.876057e-16) (0.000000e+00 0.000000e+00 0.000000e+00)) ((-1.005033e+01 -3.377833e+00 -3.105977e+00) (2.078334e+00 -8.001645e-01 1.801888e+00) (0.000000e+00 0.000000e+00 0.000000e+00))
4.12         	((-1.353290e+01 3.996889e+01 -2.018417e-16) (-3.220129e+00 -8.303337e+00 1.876368e-16) (0.000000e+00 0.000000e+00 0.000000e+00)) ((-9.992222e+00 -3.383224e+00 -2.955878e+00) (2.075834e+00 -8.050323e-01 1.816468e+00) (0.000000e+00 0.000000e+00 0.000000e+00))
4.16         	((-1.352962e+01 3.970833e+01 -2.017362e-16) (-3.236870e+00 -8.293556e+00 1.876181e-16) (0.000000e+00 0.000000e+00 0.000000e+00)) ((-9.927083e+00 -3.382404e+00 -2.821875e+00) (2.073389e+00 -8.092175e-01 1.829825e+00) (0.000000e+00 0.000000e+00 0.000000e+00))
4.2          	((-1.351835e+01 3.942337e+01 -2.015502e-16) (-3.250623e+00 -8.285184e+00 1.875449e-16) (0.000000e+00 0.000000e+00 0.000000e+00)) ((-9.855843e+00 -3.379589e+00 -2.701879e+00) (2.071296e+00 -8.126558e-01 1.841500e+00) (0.000000e+00 0.000000e+00 0.000000e+00))
4.24         	((-1.350625e+01 3.914811e+01 -2.013613e-16) (-3.261343e+00 -8.280481e+00 1.875052e-16) (0.000000e+00 0.000000e+00 0.000000e+00)) ((-9.787028e+00 -3.376563e+00 -2.601886e+00) (2.070120e+00 -8.153357e-01 1.852131e+00) (0.000000e+00 0.000000e+00 0.000000e+00))
4.28         	((-1.348407e+01 3.889514e+01 -2.012284e-16) (-3.267461e+00 -8.278455e+00 1.874984e-16) (0.000000e+00 0.000000e+00 0.000000e+00)) ((-9.723786e+00 -3.371016e+00 -2.524485e+00) (2.069614e+00 -8.168652e-01 1.861929e+00) (0.000000e+00 0.000000e+00 0.000000e+00))
4.32         	((-1.344929e+01 3.867341e+01 -2.011594e-16) (-3.269217e+00 -8.278056e+00 1.874938e-16) (0.000000e+00 0.000000e+00 0.000000e+00)) ((-9.668352e+00 -3.362322e+00 -2.477456e+00) (2.069514e+00 -8.173043e-01 1.869663e+00) (0.000000e+00 0.000000e+00 0.000000e+00))
4.36         	((-1.340944e+01 3.848148e+01 -2.011489e-16) (-3.267749e+00 -8.279585e+00 1.874781e-16) (0.000000e+00 0.000000e+00 0.000000e+00)) ((-9.620370e+00 -3.352359e+00 -2.461219e+00) (2.069896e+00 -8.169372e-01 1.874682e+00) (0.000000e+00 0.000000e+00 0.000000e+00))