# Forces        
# CofR          : (0.000000000e+00 0.000000000e+00 0.000000000e+00)
# Time          forces(pressure viscous porous)	moments(pressure viscous porous)
0.04            	((3.434208210e+00 -1.163089551e-01 2.093726954e-18) (1.443953421e+00 1.137936542e-01 -6.240097145e-18) (0.000000000e+00 0.000000000e+00 0.000000000e+00)) ((2.907723878e-02 8.585520525e-01 -3.589008668e-01) (-2.844841355e-02 3.609883553e-01 -2.641534156e-02) (0.000000000e+00 0.000000000e+00 0.000000000e+00))
0.08            	((1.525392087e+00 -8.271036744e-02 1.368647745e-18) (1.000868053e+00 1.028032584e-01 -4.161977508e-18) (0.000000000e+00 0.000000000e+00 0.000000000e+00)) ((2.067759186e-02 3.813480218e-01 -9.345161447e-02) (-2.570081460e-02 2.502170133e-01 -2.976337966e-03) (0.000000000e+00 0.000000000e+00 0.000000000e+00))
0.12            	((6.353119107e-01 -3.289563151e-02 1.373063568e-18) (8.837653972e-01 9.030780233e-02 -3.512040245e-18) (0.000000000e+00 0.000000000e+00 0.000000000e+00)) ((8.223907876e-03 1.588279777e-01 1.121458445e-01) (-2.257695058e-02 2.209413493e-01 2.021630372e-02) (0.000000000e+00 0.000000000e+00 0.000000000e+00))
0.16            	((-1.413192170e-01 6.782697035e-02 1.858583348e-18) (8.610658291e-01 6.673933151e-02 -3.182814372e-18) (0.000000000e+00 0.000000000e+00 0.000000000e+00)) ((-1.695674259e-02 -3.532980424e-02 3.889517563e-01) (-1.668483288e-02 2.152664573e-01 5.824509219e-02) (0.000000000e+00 0.000000000e+00 0.000000000e+00))
0.2             	((-9.827651013e-01 2.535124343e-01 2.839152945e-18) (8.967834392e-01 2.502650086e-02 -2.969973701e-18) (0.000000000e+00 0.000000000e+00 0.000000000e+00)) ((-6.337810857e-02 -2.456912753e-01 7.929434135e-01) (-6.256625215e-03 2.241958598e-01 1.185827266e-01) (0.000000000e+00 0.000000000e+00 0.000000000e+00))
0.24            	((-2.012127580e+00 5.309630728e-01 4.458791090e-18) (9.869349699e-01 -4.450299521e-02 -2.820686299e-18) (0.000000000e+00 0.000000000e+00 0.000000000e+00)) ((-1.327407682e-01 -5.030318950e-01 1.395723795e+00) (1.112574880e-02 2.467337425e-01 2.109408446e-01) (0.000000000e+00 0.000000000e+00 0.000000000e+00))
0.28            	((-3.400933218e+00 9.906321031e-01 6.919295925e-18) (1.138818249e+00 -1.572936395e-01 -2.669639940e-18) (0.000000000e+00 0.000000000e+00 0.000000000e+00)) ((-2.476580258e-01 -8.502333046e-01 2.283699506e+00) (3.932340989e-02 2.847045623e-01 3.483585671e-01) (0.000000000e+00 0.000000000e+00 0.000000000e+00))
0.32            	((-5.199454114e+00 1.706943051e+00 1.073303622e-17) (1.365639113e+00 -3.283026026e-01 -2.650512590e-18) (0.000000000e+00 0.000000000e+00 0.000000000e+00)) ((-4.267357628e-01 -1.299863529e+00 3.533644867e+00) (8.207565064e-02 3.414097782e-01 5.444229355e-01) (0.000000000e+00 0.000000000e+00 0.000000000e+00))
0.36            	((-7.528210406e+00 2.807257082e+00 1.663919823e-17) (1.675368127e+00 -5.618430680e-01 -3.071977466e-18) (0.000000000e+00 0.000000000e+00 0.000000000e+00)) ((-7.018142704e-01 -1.882052602e+00 5.156416892e+00) (1.404607670e-01 4.188420317e-01 8.025397880e-01) (0.000000000e+00 0.000000000e+00 0.000000000e+00))
0.4             	((-1.049684205e+01 4.214942217e+00 2.620763791e-17) (2.053140186e+00 -8.077386002e-01 -5.011324499e-18) (0.000000000e+00 0.000000000e+00 0.000000000e+00)) ((-1.053735554e+00 -2.624210512e+00 6.996227355e+00) (2.019346500e-01 5.132850466e-01 1.092175251e+00) (0.000000000e+00 0.000000000e+00 0.000000000e+00))
0.44            	((-1.391193861e+01 5.606927266e+00 4.219317021e-17) (2.472857914e+00 -9.716457393e-01 -1.055545286e-17) (0.000000000e+00 0.000000000e+00 0.000000000e+00)) ((-1.401731817e+00 -3.477984653e+00 8.804275249e+00) (2.429114348e-01 6.182144784e-01 1.355544655e+00) (0.000000000e+00 0.000000000e+00 0.000000000e+00))
0.48            	((-1.747651589e+01 6.328011685e+00 6.744555130e-17) (2.911849390e+00 -9.799787712e-01 -2.189173937e-17) (0.000000000e+00 0.000000000e+00 0.000000000e+00)) ((-1.582002921e+00 -4.369128972e+00 1.034481677e+01) (2.449946928e-01 7.279623475e-01 1.547384997e+00) (0.000000000e+00 0.000000000e+00 0.000000000e+00))
0.52            	((-2.098641204e+01 6.257811775e+00 1.029664909e-16) (3.350708418e+00 -8.423227895e-01 -3.938586236e-17) (0.000000000e+00 0.000000000e+00 0.000000000e+00)) ((-1.564452944e+00 -5.246603011e+00 1.163768912e+01) (2.105806974e-01 8.376771044e-01 1.667545575e+00) (0.000000000e+00 0.000000000e+00 0.000000000e+00))
0.56            	((-2.410022376e+01 5.640023923e+00 1.468541899e-16) (3.757033704e+00 -6.459061661e-01 -6.150221179e-17) (0.000000000e+00 0.000000000e+00 0.000000000e+00)) ((-1.410005981e+00 -6.025055939e+00 1.272029791e+01) (1.614765415e-01 9.392584259e-01 1.739948406e+00) (0.000000000e+00 0.000000000e+00 0.000000000e+00))
0.6             	((-2.613892286e+01 4.853197473e+00 1.930192382e-16) (4.074081173e+00 -4.584472666e-01 -8.416804122e-17) (0.000000000e+00 0.000000000e+00 0.000000000e+00)) ((-1.213299368e+00 -6.534730715e+00 1.350429255e+01) (1.146118167e-01 1.018520293e+00 1.786680920e+00) (0.000000000e+00 0.000000000e+00 0.000000000e+00))
0.64            	((-2.650866420e+01 4.227025770e+00 2.327769045e-16) (4.241372956e+00 -3.189123984e-01 -1.016784900e-16) (0.000000000e+00 0.000000000e+00 0.000000000e+00)) ((-1.056756442e+00 -6.627166050e+00 1.398776584e+01) (7.972809960e-02 1.060343239e+00 1.839461497e+00) (0.000000000e+00 0.000000000e+00 0.000000000e+00))
0.68            	((-2.480557599e+01 3.654339467e+00 2.598192527e-16) (4.211351225e+00 -2.464502624e-01 -1.103899188e-16) (0.000000000e+00 0.000000000e+00 0.000000000e+00)) ((-9.135848667e-01 -6.201393997e+00 1.428900126e+01) (6.161256559e-02 1.052837806e+00 1.920378296e+00) (0.000000000e+00 0.000000000e+00 0.000000000e+00))
0.72            	((-2.140998772e+01 3.207801118e+00 2.723528009e-16) (4.009616261e+00 -2.461456290e-01 -1.095296939e-16) (0.000000000e+00 0.000000000e+00 0.000000000e+00)) ((-8.019502795e-01 -5.352496931e+00 1.443538454e+01) (6.153640726e-02 1.002404065e+00 2.028303640e+00) (0.000000000e+00 0.000000000e+00 0.000000000e+00))
0.76            	((-1.722284659e+01 2.810937886e+00 2.714624535e-16) (3.710078451e+00 -3.181424231e-01 -1.004075940e-16) (0.000000000e+00 0.000000000e+00 0.000000000e+00)) ((-7.027344714e-01 -4.305711648e+00 1.455306426e+01) (7.953560578e-02 9.275196126e-01 2.156992053e+00) (0.000000000e+00 0.000000000e+00 0.000000000e+00))
0.8             	((-1.324123781e+01 2.581129428e+00 2.598354392e-16) (3.397159926e+00 -4.563695908e-01 -8.553400043e-17) (0.000000000e+00 0.000000000e+00 0.000000000e+00)) ((-6.452823570e-01 -3.310309452e+00 1.470922556e+01) (1.140923977e-01 8.492899814e-01 2.298059344e+00) (0.000000000e+00 0.000000000e+00 0.000000000e+00))
0.84            	((-1.000697779e+01 2.523455723e+00 2.415565126e-16) (3.144506214e+00 -6.365812660e-01 -6.864585170e-17) (0.000000000e+00 0.000000000e+00 0.000000000e+00)) ((-6.308639307e-01 -2.501744447e+00 1.494782105e+01) (1.591453165e-01 7.861265534e-01 2.437530948e+00) (0.000000000e+00 0.000000000e+00 0.000000000e+00))
0.88            	((-7.771533576e+00 2.552647567e+00 2.211684631e-16) (2.980591809e+00 -8.181144129e-01 -5.285025868e-17) (0.000000000e+00 0.000000000e+00 0.000000000e+00)) ((-6.381618917e-01 -1.942883394e+00 1.522131814e+01) (2.045286032e-01 7.451479522e-01 2.564181362e+00) (0.000000000e+00 0.000000000e+00 0.000000000e+00))
0.92            	((-6.536436045e+00 2.631818426e+00 2.023421243e-16) (2.905903165e+00 -9.578228630e-01 -3.984714429e-17) (0.000000000e+00 0.000000000e+00 0.000000000e+00)) ((-6.579546066e-01 -1.634109011e+00 1.546718403e+01) (2.394557157e-01 7.264757912e-01 2.673412710e+00) (0.000000000e+00 0.000000000e+00 0.000000000e+00))
0.96            	((-6.081518923e+00 2.550474981e+00 1.871939809e-16) (2.894427472e+00 -1.021375665e+00 -2.994118413e-17) (0.000000000e+00 0.000000000e+00 0.000000000e+00)) ((-6.376187453e-01 -1.520379731e+00 1.569573999e+01) (2.553439163e-01 7.236068680e-01 2.767646529e+00) (0.000000000e+00 0.000000000e+00 0.000000000e+00))
1               	((-5.911828277e+00 2.112585189e+00 1.760369573e-16) (2.921782080e+00 -1.001419179e+00 -2.297308998e-17) (0.000000000e+00 0.000000000e+00 0.000000000e+00)) ((-5.281462971e-01 -1.477957069e+00 1.583356642e+01) (2.503547948e-01 7.304455201e-01 2.844189645e+00) (0.000000000e+00 0.000000000e+00 0.000000000e+00))
1.04            	((-6.155317870e+00 1.457033760e+00 1.675952704e-16) (2.964722223e+00 -9.169917056e-01 -1.773454506e-17) (0.000000000e+00 0.000000000e+00 0.000000000e+00)) ((-3.642584401e-01 -1.538829467e+00 1.580409618e+01) (2.292479264e-01 7.411805558e-01 2.896354298e+00) (0.000000000e+00 0.000000000e+00 0.000000000e+00))
1.08            	((-6.577291510e+00 6.246076321e-01 1.603342129e-16) (2.999371947e+00 -8.058116514e-01 -1.363901260e-17) (0.000000000e+00 0.000000000e+00 0.000000000e+00)) ((-1.561519080e-01 -1.644322878e+00 1.552023156e+01) (2.014529129e-01 7.498429868e-01 2.918482289e+00) (0.000000000e+00 0.000000000e+00 0.000000000e+00))
1.12            	((-7.156213862e+00 -1.047411823e-01 1.523270676e-16) (3.025732211e+00 -7.127852024e-01 -9.790409147e-18) (0.000000000e+00 0.000000000e+00 0.000000000e+00)) ((2.618529558e-02 -1.789053466e+00 1.493234881e+01) (1.781963006e-01 7.564330527e-01 2.911381484e+00) (0.000000000e+00 0.000000000e+00 0.000000000e+00))
1.16            	((-7.586627252e+00 -3.807634506e-01 1.418802497e-16) (3.061583040e+00 -6.519503005e-01 -5.565943876e-18) (0.000000000e+00 0.000000000e+00 0.000000000e+00)) ((9.519086266e-02 -1.896656813e+00 1.414402419e+01) (1.629875751e-01 7.653957601e-01 2.886658667e+00) (0.000000000e+00 0.000000000e+00 0.000000000e+00))
1.2             	((-7.757976459e+00 -2.727824224e-01 1.273488981e-16) (3.124644958e+00 -6.087012395e-01 -1.062524746e-19) (0.000000000e+00 0.000000000e+00 0.000000000e+00)) ((6.819560560e-02 -1.939494115e+00 1.316375062e+01) (1.521753099e-01 7.811612394e-01 2.855827275e+00) (0.000000000e+00 0.000000000e+00 0.000000000e+00))
1.24            	((-7.590519459e+00 6.612423294e-02 1.067787223e-16) (3.231588763e+00 -5.654623652e-01 7.357602019e-18) (0.000000000e+00 0.000000000e+00 0.000000000e+00)) ((-1.653105824e-02 -1.897629865e+00 1.199659269e+01) (1.413655913e-01 8.078971908e-01 2.828608916e+00) (0.000000000e+00 0.000000000e+00 0.000000000e+00))
1.28            	((-7.227994977e+00 4.939865425e-01 7.815668308e-17) (3.396085956e+00 -5.046034382e-01 1.791841153e-17) (0.000000000e+00 0.000000000e+00 0.000000000e+00)) ((-1.234966356e-01 -1.806998744e+00 1.065159922e+01) (1.261508596e-01 8.490214891e-01 2.805334607e+00) (0.000000000e+00 0.000000000e+00 0.000000000e+00))
1.32            	((-6.701650888e+00 8.825401075e-01 3.969462725e-17) (3.633958352e+00 -4.125142153e-01 3.240397581e-17) (0.000000000e+00 0.000000000e+00 0.000000000e+00)) ((-2.206350269e-01 -1.675412722e+00 9.188237830e+00) (1.031285538e-01 9.084895881e-01 2.782783975e+00) (0.000000000e+00 0.000000000e+00 0.000000000e+00))
1.36            	((-6.084404348e+00 1.181960232e+00 -1.033666171e-17) (3.970393324e+00 -2.771913004e-01 5.159824636e-17) (0.000000000e+00 0.000000000e+00 0.000000000e+00)) ((-2.954900579e-01 -1.521101087e+00 7.707775112e+00) (6.929782509e-02 9.925983310e-01 2.756937987e+00) (0.000000000e+00 0.000000000e+00 0.000000000e+00))
1.4             	((-6.199095302e+00 1.534523209e+00 -7.172239840e-17) (4.434880265e+00 -9.712297131e-02 7.570803098e-17) (0.000000000e+00 0.000000000e+00 0.000000000e+00)) ((-3.836308023e-01 -1.549773825e+00 6.523734689e+00) (2.428074283e-02 1.108720066e+00 2.711765315e+00) (0.000000000e+00 0.000000000e+00 0.000000000e+00))
1.44            	((-7.414848071e+00 1.905685460e+00 -1.371487615e-16) (5.046596431e+00 1.191052275e-01 1.007407315e-16) (0.000000000e+00 0.000000000e+00 0.000000000e+00)) ((-4.764213651e-01 -1.853712018e+00 5.899637588e+00) (-2.977630687e-02 1.261649108e+00 2.605361047e+00) (0.000000000e+00 0.000000000e+00 0.000000000e+00))
1.48            	((-9.862095461e+00 2.373911711e+00 -1.936667330e-16) (5.736351365e+00 3.227736024e-01 1.199409915e-16) (0.000000000e+00 0.000000000e+00 0.000000000e+00)) ((-5.934779277e-01 -2.465523865e+00 6.078026613e+00) (-8.069340061e-02 1.434087841e+00 2.395996691e+00) (0.000000000e+00 0.000000000e+00 0.000000000e+00))
1.52            	((-1.389851747e+01 2.606988416e+00 -2.306923986e-16) (6.377870768e+00 4.315116593e-01 1.286564414e-16) (0.000000000e+00 0.000000000e+00 0.000000000e+00)) ((-6.517471041e-01 -3.474629367e+00 6.951704912e+00) (-1.078779148e-01 1.594467692e+00 2.093259607e+00) (0.000000000e+00 0.000000000e+00 0.000000000e+00))
1.56            	((-1.853763246e+01 2.183296046e+00 -2.465785324e-16) (6.826896639e+00 3.858088225e-01 1.271268084e-16) (0.000000000e+00 0.000000000e+00 0.000000000e+00)) ((-5.458240116e-01 -4.634408115e+00 8.139082504e+00) (-9.645220564e-02 1.706724160e+00 1.781939560e+00) (0.000000000e+00 0.000000000e+00 0.000000000e+00))
1.6             	((-2.240840028e+01 1.298583357e+00 -2.485383386e-16) (7.017998792e+00 1.972941217e-01 1.216899131e-16) (0.000000000e+00 0.000000000e+00 0.000000000e+00)) ((-3.246458394e-01 -5.602100070e+00 9.219984068e+00) (-4.932353044e-02 1.754499698e+00 1.558923936e+00) (0.000000000e+00 0.000000000e+00 0.000000000e+00))
1.64            	((-2.480622330e+01 6.499851315e-01 -2.467195275e-16) (6.995821658e+00 -1.937703622e-02 1.180548755e-16) (0.000000000e+00 0.000000000e+00 0.000000000e+00)) ((-1.624962829e-01 -6.201555826e+00 9.961127740e+00) (4.844259056e-03 1.748955414e+00 1.441250455e+00) (0.000000000e+00 0.000000000e+00 0.000000000e+00))
1.68            	((-2.532754169e+01 1.622569556e-01 -2.454409285e-16) (6.871384826e+00 -1.827469000e-01 1.170937751e-16) (0.000000000e+00 0.000000000e+00 0.000000000e+00)) ((-4.056423889e-02 -6.331885422e+00 1.036373478e+01) (4.568672501e-02 1.717846206e+00 1.388982298e+00) (0.000000000e+00 0.000000000e+00 0.000000000e+00))
1.72            	((-2.490418254e+01 -1.231520327e-01 -2.464729275e-16) (6.696378052e+00 -2.834614767e-01 1.182398969e-16) (0.000000000e+00 0.000000000e+00 0.000000000e+00)) ((3.078800817e-02 -6.226045634e+00 1.066074513e+01) (7.086536916e-02 1.674094513e+00 1.372924035e+00) (0.000000000e+00 0.000000000e+00 0.000000000e+00))
1.76            	((-2.417265878e+01 -2.533463181e-01 -2.496745395e-16) (6.516634810e+00 -3.448913317e-01 1.202425587e-16) (0.000000000e+00 0.000000000e+00 0.000000000e+00)) ((6.333657952e-02 -6.043164696e+00 1.097934727e+01) (8.622283292e-02 1.629158702e+00 1.371036087e+00) (0.000000000e+00 0.000000000e+00 0.000000000e+00))
1.8             	((-2.355290542e+01 -2.761835543e-01 -2.545769083e-16) (6.349982470e+00 -3.869191866e-01 1.223337007e-16) (0.000000000e+00 0.000000000e+00 0.000000000e+00)) ((6.904588858e-02 -5.888226356e+00 1.137995909e+01) (9.672979666e-02 1.587495617e+00 1.372102823e+00) (0.000000000e+00 0.000000000e+00 0.000000000e+00))
1.84            	((-2.310905431e+01 -2.105058118e-01 -2.606061800e-16) (6.204608743e+00 -4.207210620e-01 1.240886132e-16) (0.000000000e+00 0.000000000e+00 0.000000000e+00)) ((5.262645294e-02 -5.777263577e+00 1.188238436e+01) (1.051802655e-01 1.551152186e+00 1.374199379e+00) (0.000000000e+00 0.000000000e+00 0.000000000e+00))
1.88            	((-2.286007578e+01 -1.008150777e-01 -2.673081115e-16) (6.083148419e+00 -4.518699295e-01 1.253914038e-16) (0.000000000e+00 0.000000000e+00 0.000000000e+00)) ((2.520376943e-02 -5.715018946e+00 1.249681442e+01) (1.129674824e-01 1.520787105e+00 1.380339425e+00) (0.000000000e+00 0.000000000e+00 0.000000000e+00))
1.92            	((-2.284154460e+01 -4.424780734e-02 -2.741940661e-16) (5.987475274e+00 -4.808333386e-01 1.262347703e-16) (0.000000000e+00 0.000000000e+00 0.000000000e+00)) ((1.106195183e-02 -5.710386150e+00 1.320318054e+01) (1.202083346e-01 1.496868818e+00 1.393758913e+00) (0.000000000e+00 0.000000000e+00 0.000000000e+00))
1.96            	((-2.298050679e+01 -8.778681508e-02 -2.806502240e-16) (5.918169280e+00 -5.108952992e-01 1.265161904e-16) (0.000000000e+00 0.000000000e+00 0.000000000e+00)) ((2.194670377e-02 -5.745126697e+00 1.398927759e+01) (1.277238248e-01 1.479542320e+00 1.417062745e+00) (0.000000000e+00 0.000000000e+00 0.000000000e+00))
2               	((-2.320803077e+01 -2.486501537e-01 -2.861113455e-16) (5.873925743e+00 -5.427137742e-01 1.262524568e-16) (0.000000000e+00 0.000000000e+00 0.000000000e+00)) ((6.216253843e-02 -5.802007692e+00 1.482634375e+01) (1.356784435e-01 1.468481436e+00 1.452063339e+00) (0.000000000e+00 0.000000000e+00 0.000000000e+00))
2.04            	((-2.357634964e+01 -5.185233763e-01 -2.900520610e-16) (5.847304470e+00 -5.768830218e-01 1.255317828e-16) (0.000000000e+00 0.000000000e+00 0.000000000e+00)) ((1.296308441e-01 -5.894087410e+00 1.570771532e+01) (1.442207554e-01 1.461826118e+00 1.496784393e+00) (0.000000000e+00 0.000000000e+00 0.000000000e+00))
2.08            	((-2.405074044e+01 -8.470954320e-01 -2.922470570e-16) (5.834791971e+00 -6.192998538e-01 1.241729991e-16) (0.000000000e+00 0.000000000e+00 0.000000000e+00)) ((2.117738580e-01 -6.012685111e+00 1.659648287e+01) (1.548249634e-01 1.458697993e+00 1.546360244e+00) (0.000000000e+00 0.000000000e+00 0.000000000e+00))
2.12            	((-2.433261702e+01 -1.043641013e+00 -2.925995601e-16) (5.801094692e+00 -6.718269942e-01 1.223700559e-16) (0.000000000e+00 0.000000000e+00 0.000000000e+00)) ((2.609102533e-01 -6.083154255e+00 1.750381577e+01) (1.679567486e-01 1.450273673e+00 1.603974084e+00) (0.000000000e+00 0.000000000e+00 0.000000000e+00))
2.16            	((-2.474276544e+01 -1.074619245e+00 -2.914673247e-16) (5.791303141e+00 -7.242670913e-01 1.199928491e-16) (0.000000000e+00 0.000000000e+00 0.000000000e+00)) ((2.686548113e-01 -6.185691361e+00 1.847354942e+01) (1.810667728e-01 1.447825785e+00 1.657108242e+00) (0.000000000e+00 0.000000000e+00 0.000000000e+00))
2.2             	((-2.506092780e+01 -8.594287990e-01 -2.890662728e-16) (5.768026339e+00 -7.869458054e-01 1.168367178e-16) (0.000000000e+00 0.000000000e+00 0.000000000e+00)) ((2.148571997e-01 -6.265231950e+00 1.949755228e+01) (1.967364513e-01 1.442006585e+00 1.707819670e+00) (0.000000000e+00 0.000000000e+00 0.000000000e+00))
2.24            	((-2.532688376e+01 -3.993500511e-01 -2.848276798e-16) (5.731031242e+00 -8.573704259e-01 1.123147507e-16) (0.000000000e+00 0.000000000e+00 0.000000000e+00)) ((9.983751276e-02 -6.331720939e+00 2.061800060e+01) (2.143426065e-01 1.432757810e+00 1.762365689e+00) (0.000000000e+00 0.000000000e+00 0.000000000e+00))
2.28            	((-2.571030629e+01 2.992716397e-01 -2.773277081e-16) (5.705594305e+00 -9.202533512e-01 1.059653337e-16) (0.000000000e+00 0.000000000e+00 0.000000000e+00)) ((-7.481790992e-02 -6.427576572e+00 2.183013334e+01) (2.300633378e-01 1.426398576e+00 1.815994948e+00) (0.000000000e+00 0.000000000e+00 0.000000000e+00))
2.32            	((-2.598527772e+01 1.392320688e+00 -2.649696176e-16) (5.685751218e+00 -9.608598791e-01 9.729985770e-17) (0.000000000e+00 0.000000000e+00 0.000000000e+00)) ((-3.480801720e-01 -6.496319429e+00 2.314205236e+01) (2.402149698e-01 1.421437804e+00 1.867510296e+00) (0.000000000e+00 0.000000000e+00 0.000000000e+00))
2.36            	((-2.678839839e+01 2.238891370e+00 -2.483912387e-16) (5.659309991e+00 -1.000651741e+00 8.692178638e-17) (0.000000000e+00 0.000000000e+00 0.000000000e+00)) ((-5.597228424e-01 -6.697099597e+00 2.451008240e+01) (2.501629352e-01 1.414827498e+00 1.927177897e+00) (0.000000000e+00 0.000000000e+00 0.000000000e+00))
2.4             	((-2.723173430e+01 3.073340060e+00 -2.272889404e-16) (5.594381713e+00 -1.032478332e+00 7.467904197e-17) (0.000000000e+00 0.000000000e+00 0.000000000e+00)) ((-7.683350149e-01 -6.807933574e+00 2.579780574e+01) (2.581195830e-01 1.398595428e+00 1.990888513e+00) (0.000000000e+00 0.000000000e+00 0.000000000e+00))
2.44            	((-2.738371783e+01 3.908050256e+00 -2.044086949e-16) (5.465233062e+00 -1.061874571e+00 6.244313722e-17) (0.000000000e+00 0.000000000e+00 0.000000000e+00)) ((-9.770125640e-01 -6.845929458e+00 2.688130472e+01) (2.654686427e-01 1.366308265e+00 2.057177461e+00) (0.000000000e+00 0.000000000e+00 0.000000000e+00))
2.48            	((-2.700617460e+01 4.752229426e+00 -1.836231632e-16) (5.271209029e+00 -1.096688426e+00 5.191905749e-17) (0.000000000e+00 0.000000000e+00 0.000000000e+00)) ((-1.188057357e+00 -6.751543649e+00 2.770121617e+01) (2.741721066e-01 1.317802257e+00 2.126083537e+00) (0.000000000e+00 0.000000000e+00 0.000000000e+00))
2.52            	((-2.612938878e+01 5.421837272e+00 -1.683128189e-16) (5.032080728e+00 -1.144595923e+00 4.464133333e-17) (0.000000000e+00 0.000000000e+00 0.000000000e+00)) ((-1.355459318e+00 -6.532347195e+00 2.832126850e+01) (2.861489807e-01 1.258020182e+00 2.203936333e+00) (0.000000000e+00 0.000000000e+00 0.000000000e+00))
2.56            	((-2.498808019e+01 5.809239919e+00 -1.604114543e-16) (4.786722462e+00 -1.193356878e+00 4.140509504e-17) (0.000000000e+00 0.000000000e+00 0.000000000e+00)) ((-1.452309980e+00 -6.247020046e+00 2.884115108e+01) (2.983392196e-01 1.196680616e+00 2.289713960e+00) (0.000000000e+00 0.000000000e+00 0.000000000e+00))
2.6             	((-2.382940702e+01 5.902994044e+00 -1.595737630e-16) (4.568287187e+00 -1.223739891e+00 4.220177202e-17) (0.000000000e+00 0.000000000e+00 0.000000000e+00)) ((-1.475748511e+00 -5.957351755e+00 2.930422913e+01) (3.059349727e-01 1.142071797e+00 2.378994530e+00) (0.000000000e+00 0.000000000e+00 0.000000000e+00))
2.64            	((-2.285594254e+01 5.940399335e+00 -1.636585689e-16) (4.393260854e+00 -1.216273897e+00 4.608005083e-17) (0.000000000e+00 0.000000000e+00 0.000000000e+00)) ((-1.485099834e+00 -5.713985634e+00 2.980613508e+01) (3.040684743e-01 1.098315214e+00 2.467422341e+00) (0.000000000e+00 0.000000000e+00 0.000000000e+00))
2.68            	((-2.217716577e+01 5.905904360e+00 -1.705598218e-16) (4.272554434e+00 -1.164346031e+00 5.193115456e-17) (0.000000000e+00 0.000000000e+00 0.000000000e+00)) ((-1.476476090e+00 -5.544291442e+00 3.029423283e+01) (2.910865078e-01 1.068138608e+00 2.547314679e+00) (0.000000000e+00 0.000000000e+00 0.000000000e+00))
2.72            	((-2.166535836e+01 5.815488163e+00 -1.780417395e-16) (4.204723967e+00 -1.080109209e+00 5.821561812e-17) (0.000000000e+00 0.000000000e+00 0.000000000e+00)) ((-1.453872041e+00 -5.416339591e+00 3.067455419e+01) (2.700273021e-01 1.051180992e+00 2.611305736e+00) (0.000000000e+00 0.000000000e+00 0.000000000e+00))
2.76            	((-2.130451088e+01 5.783061288e+00 -1.844810091e-16) (4.177650312e+00 -9.847862008e-01 6.400695113e-17) (0.000000000e+00 0.000000000e+00 0.000000000e+00)) ((-1.445765322e+00 -5.326127719e+00 3.092951265e+01) (2.461965502e-01 1.044412578e+00 2.657927760e+00) (0.000000000e+00 0.000000000e+00 0.000000000e+00))
2.8             	((-2.113058578e+01 5.845718925e+00 -1.889915850e-16) (4.173407018e+00 -8.914586979e-01 6.859148083e-17) (0.000000000e+00 0.000000000e+00 0.000000000e+00)) ((-1.461429731e+00 -5.282646445e+00 3.106318100e+01) (2.228646745e-01 1.043351755e+00 2.689907027e+00) (0.000000000e+00 0.000000000e+00 0.000000000e+00))
2.84            	((-2.098954804e+01 5.953345364e+00 -1.909491117e-16) (4.185788639e+00 -8.127853510e-01 7.143824600e-17) (0.000000000e+00 0.000000000e+00 0.000000000e+00)) ((-1.488336341e+00 -5.247387010e+00 3.109379781e+01) (2.031963378e-01 1.046447160e+00 2.701225341e+00) (0.000000000e+00 0.000000000e+00 0.000000000e+00))
2.88            	((-2.092922429e+01 6.123573980e+00 -1.904839354e-16) (4.199759092e+00 -7.566445336e-01 7.260762416e-17) (0.000000000e+00 0.000000000e+00 0.000000000e+00)) ((-1.530893495e+00 -5.232306073e+00 3.105115741e+01) (1.891611334e-01 1.049939773e+00 2.697165894e+00) (0.000000000e+00 0.000000000e+00 0.000000000e+00))
2.92            	((-2.092442247e+01 6.327497425e+00 -1.881895947e-16) (4.206937876e+00 -7.229446559e-01 7.238320745e-17) (0.000000000e+00 0.000000000e+00 0.000000000e+00)) ((-1.581874356e+00 -5.231105618e+00 3.095487163e+01) (1.807361640e-01 1.051734469e+00 2.682444504e+00) (0.000000000e+00 0.000000000e+00 0.000000000e+00))
2.96            	((-2.097272262e+01 6.544098771e+00 -1.849052844e-16) (4.203335936e+00 -7.098421417e-01 7.123313564e-17) (0.000000000e+00 0.000000000e+00 0.000000000e+00)) ((-1.636024693e+00 -5.243180654e+00 3.082594086e+01) (1.774605354e-01 1.050833984e+00 2.661795387e+00) (0.000000000e+00 0.000000000e+00 0.000000000e+00))
3               	((-2.102664901e+01 6.685580308e+00 -1.814720432e-16) (4.193145928e+00 -7.121856551e-01 6.949963620e-17) (0.000000000e+00 0.000000000e+00 0.000000000e+00)) ((-1.671395077e+00 -5.256662252e+00 3.070053218e+01) (1.780464138e-01 1.048286482e+00 2.639581623e+00) (0.000000000e+00 0.000000000e+00 0.000000000e+00))
3.04            	((-2.108091015e+01 6.759333722e+00 -1.786498978e-16) (4.180671183e+00 -7.227473131e-01 6.772557407e-17) (0.000000000e+00 0.000000000e+00 0.000000000e+00)) ((-1.689833430e+00 -5.270227537e+00 3.058736926e+01) (1.806868283e-01 1.045167796e+00 2.620056183e+00) (0.000000000e+00 0.000000000e+00 0.000000000e+00))
3.08            	((-2.114702183e+01 6.760029205e+00 -1.769221649e-16) (4.172905341e+00 -7.347366854e-01 6.627853602e-17) (0.000000000e+00 0.000000000e+00 0.000000000e+00)) ((-1.690007301e+00 -5.286755458e+00 3.049723862e+01) (1.836841713e-01 1.043226335e+00 2.604302075e+00) (0.000000000e+00 0.000000000e+00 0.000000000e+00))
3.12            	((-2.123455000e+01 6.702105283e+00 -1.764458607e-16) (4.176082361e+00 -7.426582590e-01 6.535933288e-17) (0.000000000e+00 0.000000000e+00 0.000000000e+00)) ((-1.675526321e+00 -5.308637499e+00 3.043106455e+01) (1.856645648e-01 1.044020590e+00 2.591467292e+00) (0.000000000e+00 0.000000000e+00 0.000000000e+00))
3.16            	((-2.135234201e+01 6.603329768e+00 -1.771461140e-16) (4.194561298e+00 -7.437227735e-01 6.500732612e-17) (0.000000000e+00 0.000000000e+00 0.000000000e+00)) ((-1.650832442e+00 -5.338085504e+00 3.038153853e+01) (1.859306934e-01 1.048640325e+00 2.579557108e+00) (0.000000000e+00 0.000000000e+00 0.000000000e+00))
3.2             	((-2.151376461e+01 6.482010979e+00 -1.787258182e-16) (4.230589961e+00 -7.377730400e-01 6.512326975e-17) (0.000000000e+00 0.000000000e+00 0.000000000e+00)) ((-1.620502745e+00 -5.378441153e+00 3.033184750e+01) (1.844432600e-01 1.057647490e+00 2.565668190e+00) (0.000000000e+00 0.000000000e+00 0.000000000e+00))
3.24            	((-2.171512021e+01 6.335018114e+00 -1.807598630e-16) (4.284533168e+00 -7.267609387e-01 6.543331551e-17) (0.000000000e+00 0.000000000e+00 0.000000000e+00)) ((-1.583754529e+00 -5.428780052e+00 3.028041178e+01) (1.816902347e-01 1.071133292e+00 2.547705179e+00) (0.000000000e+00 0.000000000e+00 0.000000000e+00))
3.28            	((-2.187275504e+01 6.217952548e+00 -1.825987373e-16) (4.351043107e+00 -7.151502178e-01 6.572636747e-17) (0.000000000e+00 0.000000000e+00 0.000000000e+00)) ((-1.554488137e+00 -5.468188761e+00 3.021743297e+01) (1.787875544e-01 1.087760777e+00 2.523972005e+00) (0.000000000e+00 0.000000000e+00 0.000000000e+00))
3.32            	((-2.218264346e+01 6.139948371e+00 -1.842292364e-16) (4.424316990e+00 -7.035645212e-01 6.592348270e-17) (0.000000000e+00 0.000000000e+00 0.000000000e+00)) ((-1.534987093e+00 -5.545660866e+00 3.012903025e+01) (1.758911303e-01 1.106079248e+00 2.496335603e+00) (0.000000000e+00 0.000000000e+00 0.000000000e+00))
3.36            	((-2.254781874e+01 6.089466568e+00 -1.853110300e-16) (4.503571578e+00 -6.964029726e-01 6.577396614e-17) (0.000000000e+00 0.000000000e+00 0.000000000e+00)) ((-1.522366642e+00 -5.636954684e+00 3.001862197e+01) (1.741007431e-01 1.125892894e+00 2.462550130e+00) (0.000000000e+00 0.000000000e+00 0.000000000e+00))
3.4             	((-2.294424205e+01 6.067096859e+00 -1.857346246e-16) (4.583239518e+00 -6.955963726e-01 6.520407488e-17) (0.000000000e+00 0.000000000e+00 0.000000000e+00)) ((-1.516774215e+00 -5.736060513e+00 2.990156044e+01) (1.738990932e-01 1.145809880e+00 2.425288629e+00) (0.000000000e+00 0.000000000e+00 0.000000000e+00))
3.44            	((-2.337173369e+01 6.070312689e+00 -1.856022551e-16) (4.658730039e+00 -7.037077252e-01 6.427811577e-17) (0.000000000e+00 0.000000000e+00 0.000000000e+00)) ((-1.517578172e+00 -5.842933422e+00 2.978485718e+01) (1.759269313e-01 1.164682510e+00 2.387093587e+00) (0.000000000e+00 0.000000000e+00 0.000000000e+00))
3.48            	((-2.376659020e+01 6.038167409e+00 -1.851138731e-16) (4.728379537e+00 -7.176730462e-01 6.299176402e-17) (0.000000000e+00 0.000000000e+00 0.000000000e+00)) ((-1.509541852e+00 -5.941647551e+00 2.967847518e+01) (1.794182616e-01 1.182094884e+00 2.349151804e+00) (0.000000000e+00 0.000000000e+00 0.000000000e+00))
3.52            	((-2.411416535e+01 6.040762044e+00 -1.845416268e-16) (4.790029808e+00 -7.373901456e-01 6.169466979e-17) (0.000000000e+00 0.000000000e+00 0.000000000e+00)) ((-1.510190511e+00 -6.028541338e+00 2.958666292e+01) (1.843475364e-01 1.197507452e+00 2.314636627e+00) (0.000000000e+00 0.000000000e+00 0.000000000e+00))
3.56            	((-2.449199260e+01 6.038972318e+00 -1.842052113e-16) (4.845183489e+00 -7.543565087e-01 6.058967888e-17) (0.000000000e+00 0.000000000e+00 0.000000000e+00)) ((-1.509743079e+00 -6.122998149e+00 2.950984348e+01) (1.885891272e-01 1.211295872e+00 2.281875351e+00) (0.000000000e+00 0.000000000e+00 0.000000000e+00))
3.6             	((-2.475658594e+01 6.065457386e+00 -1.841636352e-16) (4.898333278e+00 -7.713171546e-01 5.961977262e-17) (0.000000000e+00 0.000000000e+00 0.000000000e+00)) ((-1.516364346e+00 -6.189146486e+00 2.945200171e+01) (1.928292887e-01 1.224583320e+00 2.251942562e+00) (0.000000000e+00 0.000000000e+00 0.000000000e+00))
3.64            	((-2.513021106e+01 6.037442650e+00 -1.848300656e-16) (4.950014997e+00 -7.895804153e-01 5.904671748e-17) (0.000000000e+00 0.000000000e+00 0.000000000e+00)) ((-1.509360662e+00 -6.282552766e+00 2.940573682e+01) (1.973951038e-01 1.237503749e+00 2.224628887e+00) (0.000000000e+00 0.000000000e+00 0.000000000e+00))