# Forces        
# CofR          : (0.000000000e+00 0.000000000e+00 0.000000000e+00)
# Time          forces(pressure viscous porous)	moments(pressure viscous porous)
0.04            	((7.850266083e-01 1.042175568e-04 1.560990078e-19) (7.712670898e-01 3.362201857e-05 -6.708973257e-20) (0.000000000e+00 0.000000000e+00 0.000000000e+00)) ((-2.605438920e-05 1.962566521e-01 4.035487222e-14) (-8.405504643e-06 1.928167725e-01 4.818261960e-06) (0.000000000e+00 0.000000000e+00 0.000000000e+00))
0.08            	((5.470870410e-01 2.563680953e-04 1.224777844e-19) (4.972494322e-01 5.487880310e-06 -5.829940926e-20) (0.000000000e+00 0.000000000e+00 0.000000000e+00)) ((-6.409202382e-05 1.367717602e-01 -3.898582845e-13) (-1.371970077e-06 1.243123580e-01 2.556448268e-06) (0.000000000e+00 0.000000000e+00 0.000000000e+00))
0.12            	((4.341345281e-01 1.557697824e-03 1.065319969e-19) (3.797133131e-01 5.753510894e-05 -5.349239426e-20) (0.000000000e+00 0.000000000e+00 0.000000000e+00)) ((-3.894244561e-04 1.085336320e-01 -4.367480769e-13) (-1.438377724e-05 9.492832828e-02 9.763479225e-07) (0.000000000e+00 0.000000000e+00 0.000000000e+00))
0.16            	((3.706515863e-01 8.354340462e-04 9.672386157e-20) (3.186654641e-01 7.435153568e-05 -5.052452964e-20) (0.000000000e+00 0.000000000e+00 0.000000000e+00)) ((-2.088585115e-04 9.266289659e-02 -1.941686829e-13) (-1.858788392e-05 7.966636602e-02 3.473358722e-07) (0.000000000e+00 0.000000000e+00 0.000000000e+00))
0.2             	((3.337651644e-01 1.603861234e-04 9.031808377e-20) (2.814078286e-01 6.409598591e-05 -4.850098626e-20) (0.000000000e+00 0.000000000e+00 0.000000000e+00)) ((-4.009653085e-05 8.344129109e-02 -5.284856754e-14) (-1.602399648e-05 7.035195714e-02 -7.634935353e-08) (0.000000000e+00 0.000000000e+00 0.000000000e+00))
0.24            	((3.120141504e-01 -1.102814227e-04 8.605574953e-20) (2.558287287e-01 4.765353020e-05 -4.709488475e-20) (0.000000000e+00 0.000000000e+00 0.000000000e+00)) ((2.757035568e-05 7.800353760e-02 -3.730913148e-14) (-1.191338255e-05 6.395718219e-02 -4.493205889e-07) (0.000000000e+00 0.000000000e+00 0.000000000e+00))
0.28            	((2.989349563e-01 -1.146309939e-04 8.319675361e-20) (2.369025539e-01 2.840687457e-05 -4.597439778e-20) (0.000000000e+00 0.000000000e+00 0.000000000e+00)) ((2.865774848e-05 7.473373907e-02 -4.239675017e-14) (-7.101718643e-06 5.922563847e-02 -8.209355652e-07) (0.000000000e+00 0.000000000e+00 0.000000000e+00))
0.32            	((2.908806910e-01 -5.153389539e-05 8.116195540e-20) (2.222446141e-01 2.270031753e-05 -4.506284041e-20) (0.000000000e+00 0.000000000e+00 0.000000000e+00)) ((1.288347385e-05 7.272017275e-02 -6.888500187e-14) (-5.675079383e-06 5.556115353e-02 -1.022643355e-06) (0.000000000e+00 0.000000000e+00 0.000000000e+00))
0.36            	((2.865602017e-01 -2.287051967e-05 7.964601597e-20) (2.104301660e-01 1.770715262e-05 -4.424086969e-20) (0.000000000e+00 0.000000000e+00 0.000000000e+00)) ((5.717629916e-06 7.164005043e-02 -5.179092832e-14) (-4.426788156e-06 5.260754149e-02 -1.063441145e-06) (0.000000000e+00 0.000000000e+00 0.000000000e+00))
0.4             	((2.841876519e-01 -1.827608606e-04 7.847680586e-20) (2.006009281e-01 1.195708789e-05 -4.353120756e-20) (0.000000000e+00 0.000000000e+00 0.000000000e+00)) ((4.569021515e-05 7.104691297e-02 1.239123821e-14) (-2.989271973e-06 5.015023202e-02 -1.031675244e-06) (0.000000000e+00 0.000000000e+00 0.000000000e+00))
0.44            	((2.839248966e-01 -1.208751391e-04 7.758906541e-20) (1.923129768e-01 2.802687993e-06 -4.288506233e-20) (0.000000000e+00 0.000000000e+00 0.000000000e+00)) ((3.021878478e-05 7.098122415e-02 -3.803121013e-14) (-7.006719984e-07 4.807824419e-02 -9.420358406e-07) (0.000000000e+00 0.000000000e+00 0.000000000e+00))
0.48            	((2.843365924e-01 -1.321496527e-04 7.690641760e-20) (1.852377107e-01 -2.857199815e-06 -4.233072123e-20) (0.000000000e+00 0.000000000e+00 0.000000000e+00)) ((3.303741318e-05 7.108414809e-02 -3.396404252e-14) (7.142999538e-07 4.630942768e-02 -8.937272073e-07) (0.000000000e+00 0.000000000e+00 0.000000000e+00))
0.52            	((2.864524217e-01 7.718314059e-06 7.641240853e-20) (1.791267761e-01 -4.930129837e-06 -4.181901816e-20) (0.000000000e+00 0.000000000e+00 0.000000000e+00)) ((-1.929578515e-06 7.161310541e-02 -8.123688354e-14) (1.232532459e-06 4.478169403e-02 -9.351713887e-07) (0.000000000e+00 0.000000000e+00 0.000000000e+00))
0.56            	((2.886716997e-01 6.730081968e-05 7.607745022e-20) (1.738281902e-01 -2.721013060e-06 -4.139022840e-20) (0.000000000e+00 0.000000000e+00 0.000000000e+00)) ((-1.682520492e-05 7.216792491e-02 -1.077631907e-13) (6.802532651e-07 4.345704755e-02 -1.160007608e-06) (0.000000000e+00 0.000000000e+00 0.000000000e+00))
0.6             	((2.910549060e-01 1.290177293e-04 7.578976837e-20) (1.691557331e-01 1.820498732e-06 -4.099946206e-20) (0.000000000e+00 0.000000000e+00 0.000000000e+00)) ((-3.225443232e-05 7.276372649e-02 -2.320914728e-13) (-4.551246830e-07 4.228893328e-02 -1.618237031e-06) (0.000000000e+00 0.000000000e+00 0.000000000e+00))
0.64            	((2.946378925e-01 2.636364079e-04 7.570765128e-20) (1.650293955e-01 7.988220188e-06 -4.066016041e-20) (0.000000000e+00 0.000000000e+00 0.000000000e+00)) ((-6.590910197e-05 7.365947312e-02 -2.497973616e-13) (-1.997055047e-06 4.125734887e-02 -2.254275153e-06) (0.000000000e+00 0.000000000e+00 0.000000000e+00))
0.68            	((2.980792892e-01 4.053112875e-04 7.563788773e-20) (1.613620655e-01 1.586771437e-05 -4.033502126e-20) (0.000000000e+00 0.000000000e+00 0.000000000e+00)) ((-1.013278219e-04 7.451982231e-02 -3.100193713e-13) (-3.966928593e-06 4.034051638e-02 -3.094775970e-06) (0.000000000e+00 0.000000000e+00 0.000000000e+00))
0.72            	((3.013816000e-01 5.358806280e-04 7.556608358e-20) (1.580738771e-01 2.493493249e-05 -4.006664081e-20) (0.000000000e+00 0.000000000e+00 0.000000000e+00)) ((-1.339701570e-04 7.534539999e-02 -3.801354847e-13) (-6.233733123e-06 3.951846928e-02 -4.160692725e-06) (0.000000000e+00 0.000000000e+00 0.000000000e+00))
0.76            	((3.046006581e-01 5.666757352e-04 7.561029967e-20) (1.551215476e-01 2.878232659e-05 -3.978837416e-20) (0.000000000e+00 0.000000000e+00 0.000000000e+00)) ((-1.416689338e-04 7.615016452e-02 -3.352561284e-13) (-7.195581648e-06 3.878038691e-02 -5.470117138e-06) (0.000000000e+00 0.000000000e+00 0.000000000e+00))
0.8             	((3.077788060e-01 5.373384168e-04 7.554090217e-20) (1.524529096e-01 3.903645794e-05 -3.955369929e-20) (0.000000000e+00 0.000000000e+00 0.000000000e+00)) ((-1.343346042e-04 7.694470151e-02 -4.481812057e-13) (-9.759114486e-06 3.811322741e-02 -7.021385417e-06) (0.000000000e+00 0.000000000e+00 0.000000000e+00))
0.84            	((3.107138494e-01 5.510773467e-04 7.541904078e-20) (1.500265978e-01 4.589585559e-05 -3.932735977e-20) (0.000000000e+00 0.000000000e+00 0.000000000e+00)) ((-1.377693367e-04 7.767846236e-02 -5.169781703e-13) (-1.147396390e-05 3.750664945e-02 -8.703650524e-06) (0.000000000e+00 0.000000000e+00 0.000000000e+00))
0.88            	((3.142084006e-01 7.648396956e-04 7.555148740e-20) (1.478361394e-01 5.689129937e-05 -3.912242236e-20) (0.000000000e+00 0.000000000e+00 0.000000000e+00)) ((-1.912099239e-04 7.855210016e-02 -5.916331878e-13) (-1.422282484e-05 3.695903486e-02 -1.048815539e-05) (0.000000000e+00 0.000000000e+00 0.000000000e+00))
0.92            	((3.169089963e-01 8.547167927e-04 7.552883412e-20) (1.458212175e-01 7.361066110e-05 -3.894145298e-20) (0.000000000e+00 0.000000000e+00 0.000000000e+00)) ((-2.136791982e-04 7.922724908e-02 -6.562477341e-13) (-1.840266528e-05 3.645530438e-02 -1.226961309e-05) (0.000000000e+00 0.000000000e+00 0.000000000e+00))
0.96            	((3.202811008e-01 1.028006795e-03 7.550332999e-20) (1.439871390e-01 9.429630985e-05 -3.878934382e-20) (0.000000000e+00 0.000000000e+00 0.000000000e+00)) ((-2.570016987e-04 8.007027519e-02 -7.020984271e-13) (-2.357407746e-05 3.599678475e-02 -1.398125151e-05) (0.000000000e+00 0.000000000e+00 0.000000000e+00))
1               	((3.229435913e-01 1.173617616e-03 7.545186006e-20) (1.422976405e-01 1.125295022e-04 -3.864674424e-20) (0.000000000e+00 0.000000000e+00 0.000000000e+00)) ((-2.934044041e-04 8.073589782e-02 -7.656091473e-13) (-2.813237556e-05 3.557441014e-02 -1.557672616e-05) (0.000000000e+00 0.000000000e+00 0.000000000e+00))
1.04            	((3.252933131e-01 1.408580680e-03 7.537623818e-20) (1.407355406e-01 1.316992963e-04 -3.846524339e-20) (0.000000000e+00 0.000000000e+00 0.000000000e+00)) ((-3.521451701e-04 8.132332828e-02 -7.909673350e-13) (-3.292482407e-05 3.518388515e-02 -1.695880557e-05) (0.000000000e+00 0.000000000e+00 0.000000000e+00))
1.08            	((3.284916547e-01 1.515364573e-03 7.533885104e-20) (1.393145494e-01 1.527937964e-04 -3.834361093e-20) (0.000000000e+00 0.000000000e+00 0.000000000e+00)) ((-3.788411433e-04 8.212291368e-02 -8.941116077e-13) (-3.819844911e-05 3.482863734e-02 -1.812058261e-05) (0.000000000e+00 0.000000000e+00 0.000000000e+00))
1.12            	((3.306061887e-01 1.378133930e-03 7.514653144e-20) (1.379904473e-01 1.687503264e-04 -3.816361311e-20) (0.000000000e+00 0.000000000e+00 0.000000000e+00)) ((-3.445334826e-04 8.265154718e-02 -8.823376058e-13) (-4.218758159e-05 3.449761183e-02 -1.897639197e-05) (0.000000000e+00 0.000000000e+00 0.000000000e+00))
1.16            	((3.332344788e-01 1.561372403e-03 7.513200304e-20) (1.367655700e-01 1.875036783e-04 -3.799995731e-20) (0.000000000e+00 0.000000000e+00 0.000000000e+00)) ((-3.903431008e-04 8.330861971e-02 -8.519836312e-13) (-4.687591958e-05 3.419139249e-02 -1.953697196e-05) (0.000000000e+00 0.000000000e+00 0.000000000e+00))
1.2             	((3.347767616e-01 1.463214362e-03 7.499005200e-20) (1.356208043e-01 1.979881784e-04 -3.783117630e-20) (0.000000000e+00 0.000000000e+00 0.000000000e+00)) ((-3.658035906e-04 8.369419040e-02 -9.551632488e-13) (-4.949704460e-05 3.390520107e-02 -1.977267910e-05) (0.000000000e+00 0.000000000e+00 0.000000000e+00))
1.24            	((3.365803147e-01 1.465176347e-03 7.487594433e-20) (1.345407630e-01 2.076285758e-04 -3.764639453e-20) (0.000000000e+00 0.000000000e+00 0.000000000e+00)) ((-3.662940866e-04 8.414507868e-02 -9.781943051e-13) (-5.190714394e-05 3.363519074e-02 -1.962512861e-05) (0.000000000e+00 0.000000000e+00 0.000000000e+00))
1.28            	((3.386522390e-01 1.609291514e-03 7.477024559e-20) (1.335424438e-01 2.223012301e-04 -3.744915577e-20) (0.000000000e+00 0.000000000e+00 0.000000000e+00)) ((-4.023228785e-04 8.466305976e-02 -1.041521253e-12) (-5.557530753e-05 3.338561095e-02 -1.909084225e-05) (0.000000000e+00 0.000000000e+00 0.000000000e+00))
1.32            	((3.405904976e-01 1.665516919e-03 7.459839646e-20) (1.326106092e-01 2.305500226e-04 -3.724772005e-20) (0.000000000e+00 0.000000000e+00 0.000000000e+00)) ((-4.163792298e-04 8.514762441e-02 -1.124719892e-12) (-5.763750565e-05 3.315265231e-02 -1.813681326e-05) (0.000000000e+00 0.000000000e+00 0.000000000e+00))
1.36            	((3.425269598e-01 1.864979680e-03 7.448916595e-20) (1.317613328e-01 2.445884811e-04 -3.702888840e-20) (0.000000000e+00 0.000000000e+00 0.000000000e+00)) ((-4.662449199e-04 8.563173995e-02 -1.107911289e-12) (-6.114712028e-05 3.294033319e-02 -1.673431764e-05) (0.000000000e+00 0.000000000e+00 0.000000000e+00))
1.4             	((3.439920227e-01 2.028219880e-03 7.430225025e-20) (1.309541030e-01 2.586964532e-04 -3.682411242e-20) (0.000000000e+00 0.000000000e+00 0.000000000e+00)) ((-5.070549699e-04 8.599800567e-02 -1.279536156e-12) (-6.467411331e-05 3.273852575e-02 -1.492767280e-05) (0.000000000e+00 0.000000000e+00 0.000000000e+00))
1.44            	((3.451414504e-01 1.897795467e-03 7.421673233e-20) (1.301850545e-01 2.653834723e-04 -3.655869612e-20) (0.000000000e+00 0.000000000e+00 0.000000000e+00)) ((-4.744488667e-04 8.628536259e-02 -1.214285183e-12) (-6.634586808e-05 3.254626362e-02 -1.268743257e-05) (0.000000000e+00 0.000000000e+00 0.000000000e+00))
1.48            	((3.455963985e-01 1.997865861e-03 7.422288538e-20) (1.294563306e-01 2.731081941e-04 -3.628331542e-20) (0.000000000e+00 0.000000000e+00 0.000000000e+00)) ((-4.994664652e-04 8.639909963e-02 -1.120373325e-12) (-6.827704852e-05 3.236408265e-02 -9.993574063e-06) (0.000000000e+00 0.000000000e+00 0.000000000e+00))
1.52            	((3.463327835e-01 2.184623853e-03 7.405824386e-20) (1.287378766e-01 2.793996621e-04 -3.600875187e-20) (0.000000000e+00 0.000000000e+00 0.000000000e+00)) ((-5.461559632e-04 8.658319586e-02 -1.228836911e-12) (-6.984991552e-05 3.218446916e-02 -6.916864277e-06) (0.000000000e+00 0.000000000e+00 0.000000000e+00))
1.56            	((3.473769634e-01 1.957143248e-03 7.391581322e-20) (1.280791699e-01 2.808269542e-04 -3.575589087e-20) (0.000000000e+00 0.000000000e+00 0.000000000e+00)) ((-4.892858120e-04 8.684424084e-02 -1.272099613e-12) (-7.020673856e-05 3.201979247e-02 -3.478901533e-06) (0.000000000e+00 0.000000000e+00 0.000000000e+00))
1.6             	((3.482227849e-01 2.080104941e-03 7.384444062e-20) (1.274550870e-01 2.835365005e-04 -3.550316657e-20) (0.000000000e+00 0.000000000e+00 0.000000000e+00)) ((-5.200262352e-04 8.705569622e-02 -1.206117671e-12) (-7.088412512e-05 3.186377176e-02 1.943261289e-07) (0.000000000e+00 0.000000000e+00 0.000000000e+00))
1.64            	((3.487863282e-01 2.086308225e-03 7.380300360e-20) (1.268609837e-01 2.880129389e-04 -3.522104898e-20) (0.000000000e+00 0.000000000e+00 0.000000000e+00)) ((-5.215770562e-04 8.719658204e-02 -1.093745537e-12) (-7.200323472e-05 3.171524594e-02 3.864805425e-06) (0.000000000e+00 0.000000000e+00 0.000000000e+00))
1.68            	((3.491041189e-01 1.949683465e-03 7.364457337e-20) (1.262883833e-01 2.874877607e-04 -3.494881031e-20) (0.000000000e+00 0.000000000e+00 0.000000000e+00)) ((-4.874208664e-04 8.727602974e-02 -1.145880699e-12) (-7.187194017e-05 3.157209582e-02 7.431659935e-06) (0.000000000e+00 0.000000000e+00 0.000000000e+00))
1.72            	((3.500607741e-01 1.925283587e-03 7.354705239e-20) (1.257614983e-01 2.838595457e-04 -3.467094446e-20) (0.000000000e+00 0.000000000e+00 0.000000000e+00)) ((-4.813208968e-04 8.751519354e-02 -1.057083457e-12) (-7.096488642e-05 3.144037457e-02 1.099723554e-05) (0.000000000e+00 0.000000000e+00 0.000000000e+00))
1.76            	((3.499610282e-01 1.847081485e-03 7.347884105e-20) (1.252466512e-01 2.809619633e-04 -3.440378026e-20) (0.000000000e+00 0.000000000e+00 0.000000000e+00)) ((-4.617703712e-04 8.749025706e-02 -1.010880832e-12) (-7.024049082e-05 3.131166280e-02 1.452763026e-05) (0.000000000e+00 0.000000000e+00 0.000000000e+00))
1.8             	((3.500746578e-01 1.825337114e-03 7.340655483e-20) (1.247429386e-01 2.731154810e-04 -3.414198547e-20) (0.000000000e+00 0.000000000e+00 0.000000000e+00)) ((-4.563342785e-04 8.751866445e-02 -9.548666111e-13) (-6.827887025e-05 3.118573465e-02 1.799097455e-05) (0.000000000e+00 0.000000000e+00 0.000000000e+00))
1.84            	((3.499194025e-01 1.762658611e-03 7.329034692e-20) (1.242563132e-01 2.724539637e-04 -3.391230705e-20) (0.000000000e+00 0.000000000e+00 0.000000000e+00)) ((-4.406646527e-04 8.747985063e-02 -9.568162235e-13) (-6.811349092e-05 3.106407829e-02 2.137791039e-05) (0.000000000e+00 0.000000000e+00 0.000000000e+00))
1.88            	((3.496936814e-01 1.701236755e-03 7.319613360e-20) (1.237832858e-01 2.649370075e-04 -3.368344034e-20) (0.000000000e+00 0.000000000e+00 0.000000000e+00)) ((-4.253091888e-04 8.742342034e-02 -9.468907863e-13) (-6.623425189e-05 3.094582145e-02 2.466271220e-05) (0.000000000e+00 0.000000000e+00 0.000000000e+00))
1.92            	((3.494430528e-01 1.700171658e-03 7.313205584e-20) (1.233238367e-01 2.594039163e-04 -3.345881580e-20) (0.000000000e+00 0.000000000e+00 0.000000000e+00)) ((-4.250429145e-04 8.736076320e-02 -8.888935595e-13) (-6.485097908e-05 3.083095918e-02 2.781628957e-05) (0.000000000e+00 0.000000000e+00 0.000000000e+00))
1.96            	((3.491190784e-01 1.668148181e-03 7.304977812e-20) (1.228771440e-01 2.532986038e-04 -3.324806716e-20) (0.000000000e+00 0.000000000e+00 0.000000000e+00)) ((-4.170370453e-04 8.727976959e-02 -8.412576191e-13) (-6.332465095e-05 3.071928599e-02 3.078896744e-05) (0.000000000e+00 0.000000000e+00 0.000000000e+00))
2               	((3.488303710e-01 1.730979438e-03 7.297133600e-20) (1.224464586e-01 2.508391002e-04 -3.305345920e-20) (0.000000000e+00 0.000000000e+00 0.000000000e+00)) ((-4.327448594e-04 8.720759274e-02 -7.876175840e-13) (-6.270977506e-05 3.061161466e-02 3.353933203e-05) (0.000000000e+00 0.000000000e+00 0.000000000e+00))
2.04            	((3.483749229e-01 1.552264362e-03 7.285923962e-20) (1.220270801e-01 2.472776164e-04 -3.287244375e-20) (0.000000000e+00 0.000000000e+00 0.000000000e+00)) ((-3.880660906e-04 8.709373071e-02 -7.841377287e-13) (-6.181940409e-05 3.050677002e-02 3.603676305e-05) (0.000000000e+00 0.000000000e+00 0.000000000e+00))
2.08            	((3.478623864e-01 1.338584279e-03 7.274138799e-20) (1.216192758e-01 2.324003902e-04 -3.270245782e-20) (0.000000000e+00 0.000000000e+00 0.000000000e+00)) ((-3.346460697e-04 8.696559660e-02 -7.867491381e-13) (-5.810009754e-05 3.040481895e-02 3.828137321e-05) (0.000000000e+00 0.000000000e+00 0.000000000e+00))
2.12            	((3.472695505e-01 1.518167930e-03 7.273477179e-20) (1.212169904e-01 2.283751832e-04 -3.253924430e-20) (0.000000000e+00 0.000000000e+00 0.000000000e+00)) ((-3.795419824e-04 8.681738762e-02 -6.972987725e-13) (-5.709379581e-05 3.030424760e-02 4.027359604e-05) (0.000000000e+00 0.000000000e+00 0.000000000e+00))
2.16            	((3.468077434e-01 1.346462214e-03 7.264677204e-20) (1.208300503e-01 2.237724647e-04 -3.238925968e-20) (0.000000000e+00 0.000000000e+00 0.000000000e+00)) ((-3.366155535e-04 8.670193585e-02 -6.708997507e-13) (-5.594311617e-05 3.020751258e-02 4.196158043e-05) (0.000000000e+00 0.000000000e+00 0.000000000e+00))
2.2             	((3.463526218e-01 1.152180814e-03 7.253369897e-20) (1.204538876e-01 2.134884296e-04 -3.224783088e-20) (0.000000000e+00 0.000000000e+00 0.000000000e+00)) ((-2.880452036e-04 8.658815544e-02 -6.475109077e-13) (-5.337210741e-05 3.011347189e-02 4.335575563e-05) (0.000000000e+00 0.000000000e+00 0.000000000e+00))
2.24            	((3.456707762e-01 1.298381473e-03 7.240476627e-20) (1.200862782e-01 2.078096270e-04 -3.214046988e-20) (0.000000000e+00 0.000000000e+00 0.000000000e+00)) ((-3.245953684e-04 8.641769404e-02 -6.567608870e-13) (-5.195240675e-05 3.002156954e-02 4.446217238e-05) (0.000000000e+00 0.000000000e+00 0.000000000e+00))
2.28            	((3.449890686e-01 1.185355949e-03 7.231177600e-20) (1.197235286e-01 2.043491380e-04 -3.201404308e-20) (0.000000000e+00 0.000000000e+00 0.000000000e+00)) ((-2.963389873e-04 8.624726714e-02 -6.249111471e-13) (-5.108728450e-05 2.993088214e-02 4.532350572e-05) (0.000000000e+00 0.000000000e+00 0.000000000e+00))
2.32            	((3.442748979e-01 1.019399991e-03 7.220288615e-20) (1.193672236e-01 1.965903246e-04 -3.189306557e-20) (0.000000000e+00 0.000000000e+00 0.000000000e+00)) ((-2.548499978e-04 8.606872447e-02 -6.001796282e-13) (-4.914758114e-05 2.984180590e-02 4.594707736e-05) (0.000000000e+00 0.000000000e+00 0.000000000e+00))
2.36            	((3.434689681e-01 9.272563697e-04 7.209940221e-20) (1.190172250e-01 1.877607845e-04 -3.177803056e-20) (0.000000000e+00 0.000000000e+00 0.000000000e+00)) ((-2.318140924e-04 8.586724202e-02 -5.807429190e-13) (-4.694019611e-05 2.975430625e-02 4.633899585e-05) (0.000000000e+00 0.000000000e+00 0.000000000e+00))
2.4             	((3.427507663e-01 8.773170569e-04 7.200133910e-20) (1.186720259e-01 1.805962173e-04 -3.166207922e-20) (0.000000000e+00 0.000000000e+00 0.000000000e+00)) ((-2.193292642e-04 8.568769156e-02 -5.416919083e-13) (-4.514905432e-05 2.966800647e-02 4.652394842e-05) (0.000000000e+00 0.000000000e+00 0.000000000e+00))
2.44            	((3.418837318e-01 6.019755016e-04 7.189806017e-20) (1.183314829e-01 1.720334994e-04 -3.155044919e-20) (0.000000000e+00 0.000000000e+00 0.000000000e+00)) ((-1.504938754e-04 8.547093295e-02 -5.308544403e-13) (-4.300837485e-05 2.958287072e-02 4.651548612e-05) (0.000000000e+00 0.000000000e+00 0.000000000e+00))
2.48            	((3.412488701e-01 7.811042846e-04 7.184971575e-20) (1.180013541e-01 1.666985426e-04 -3.143580119e-20) (0.000000000e+00 0.000000000e+00 0.000000000e+00)) ((-1.952760712e-04 8.531221752e-02 -4.461296783e-13) (-4.167463564e-05 2.950033853e-02 4.635621241e-05) (0.000000000e+00 0.000000000e+00 0.000000000e+00))
2.52            	((3.403909865e-01 6.448081354e-04 7.173625015e-20) (1.176736614e-01 1.588623638e-04 -3.132635774e-20) (0.000000000e+00 0.000000000e+00 0.000000000e+00)) ((-1.612020338e-04 8.509774663e-02 -4.404081266e-13) (-3.971559095e-05 2.941841535e-02 4.605795682e-05) (0.000000000e+00 0.000000000e+00 0.000000000e+00))
2.56            	((3.396351468e-01 4.015353293e-04 7.161751215e-20) (1.173529365e-01 1.473226304e-04 -3.120847217e-20) (0.000000000e+00 0.000000000e+00 0.000000000e+00)) ((-1.003838323e-04 8.490878670e-02 -4.105728344e-13) (-3.683065759e-05 2.933823412e-02 4.567338737e-05) (0.000000000e+00 0.000000000e+00 0.000000000e+00))
2.6             	((3.385293148e-01 3.550306494e-04 7.156227785e-20) (1.170301851e-01 1.355247336e-04 -3.109438258e-20) (0.000000000e+00 0.000000000e+00 0.000000000e+00)) ((-8.875766234e-05 8.463232871e-02 -3.801516393e-13) (-3.388118340e-05 2.925754627e-02 4.523011546e-05) (0.000000000e+00 0.000000000e+00 0.000000000e+00))
2.64            	((3.377510097e-01 1.879376778e-04 7.144391630e-20) (1.167135536e-01 1.247817700e-04 -3.098231211e-20) (0.000000000e+00 0.000000000e+00 0.000000000e+00)) ((-4.698441946e-05 8.443775243e-02 -3.641043630e-13) (-3.119544251e-05 2.917838840e-02 4.476104781e-05) (0.000000000e+00 0.000000000e+00 0.000000000e+00))
2.68            	((3.370117456e-01 -2.670336675e-05 7.136086607e-20) (1.164052042e-01 1.111654214e-04 -3.086830957e-20) (0.000000000e+00 0.000000000e+00 0.000000000e+00)) ((6.675841688e-06 8.425293640e-02 -3.269791122e-13) (-2.779135534e-05 2.910130105e-02 4.430151765e-05) (0.000000000e+00 0.000000000e+00 0.000000000e+00))
2.72            	((3.359999418e-01 3.742122653e-05 7.127871356e-20) (1.160955947e-01 1.020183635e-04 -3.075379207e-20) (0.000000000e+00 0.000000000e+00 0.000000000e+00)) ((-9.355306631e-06 8.399998545e-02 -2.930145276e-13) (-2.550459087e-05 2.902389869e-02 4.388466935e-05) (0.000000000e+00 0.000000000e+00 0.000000000e+00))
2.76            	((3.352358819e-01 -1.474598625e-04 7.120924027e-20) (1.157944031e-01 8.865191968e-05 -3.062980830e-20) (0.000000000e+00 0.000000000e+00 0.000000000e+00)) ((3.686496564e-05 8.380897048e-02 -2.480760822e-13) (-2.216297992e-05 2.894860077e-02 4.354355954e-05) (0.000000000e+00 0.000000000e+00 0.000000000e+00))
2.8             	((3.343623741e-01 -3.607797540e-04 7.113196868e-20) (1.154990151e-01 7.217899091e-05 -3.049606842e-20) (0.000000000e+00 0.000000000e+00 0.000000000e+00)) ((9.019493850e-05 8.359059352e-02 -1.931135373e-13) (-1.804474773e-05 2.887475378e-02 4.330419097e-05) (0.000000000e+00 0.000000000e+00 0.000000000e+00))
2.84            	((3.334428198e-01 -5.916676725e-04 7.107024569e-20) (1.152028291e-01 5.033341852e-05 -3.035900253e-20) (0.000000000e+00 0.000000000e+00 0.000000000e+00)) ((1.479169181e-04 8.336070494e-02 -1.420851284e-13) (-1.258335463e-05 2.880070729e-02 4.318317266e-05) (0.000000000e+00 0.000000000e+00 0.000000000e+00))
2.88            	((3.327299935e-01 -6.056390300e-04 7.101047030e-20) (1.149139237e-01 3.022068775e-05 -3.022709673e-20) (0.000000000e+00 0.000000000e+00 0.000000000e+00)) ((1.514097575e-04 8.318249837e-02 -7.619599396e-14) (-7.555171938e-06 2.872848093e-02 4.319350933e-05) (0.000000000e+00 0.000000000e+00 0.000000000e+00))
2.92            	((3.318827976e-01 -8.396467531e-04 7.095166812e-20) (1.146325567e-01 1.105674713e-05 -3.009089548e-20) (0.000000000e+00 0.000000000e+00 0.000000000e+00)) ((2.099116883e-04 8.297069940e-02 -2.408425022e-14) (-2.764186782e-06 2.865813917e-02 4.334551549e-05) (0.000000000e+00 0.000000000e+00 0.000000000e+00))
2.96            	((3.314747654e-01 -1.184091289e-03 7.083413595e-20) (1.143609602e-01 -1.386464171e-05 -2.996158259e-20) (0.000000000e+00 0.000000000e+00 0.000000000e+00)) ((2.960228224e-04 8.286869136e-02 1.659371425e-14) (3.466160426e-06 2.859024006e-02 4.365010787e-05) (0.000000000e+00 0.000000000e+00 0.000000000e+00))
3               	((3.306859629e-01 -1.341411648e-03 7.080177575e-20) (1.140978319e-01 -4.208434767e-05 -2.982778052e-20) (0.000000000e+00 0.000000000e+00 0.000000000e+00)) ((3.353529119e-04 8.267149073e-02 7.648460858e-14) (1.052108692e-05 2.852445798e-02 4.411812705e-05) (0.000000000e+00 0.000000000e+00 0.000000000e+00))
3.04            	((3.299605042e-01 -1.505370239e-03 7.076758641e-20) (1.138393839e-01 -7.063048055e-05 -2.969786540e-20) (0.000000000e+00 0.000000000e+00 0.000000000e+00)) ((3.763425597e-04 8.249012605e-02 1.307708282e-13) (1.765762014e-05 2.845984597e-02 4.474780896e-05) (0.000000000e+00 0.000000000e+00 0.000000000e+00))
3.08            	((3.291785200e-01 -1.675538064e-03 7.073948319e-20) (1.135858135e-01 -9.848660993e-05 -2.957028181e-20) (0.000000000e+00 0.000000000e+00 0.000000000e+00)) ((4.188845159e-04 8.229463001e-02 1.789460507e-13) (2.462165248e-05 2.839645338e-02 4.553482680e-05) (0.000000000e+00 0.000000000e+00 0.000000000e+00))
3.12            	((3.285461116e-01 -1.825031453e-03 7.071093722e-20) (1.133361916e-01 -1.269013598e-04 -2.944671379e-20) (0.000000000e+00 0.000000000e+00 0.000000000e+00)) ((4.562578633e-04 8.213652790e-02 2.254509513e-13) (3.172533995e-05 2.833404790e-02 4.647640227e-05) (0.000000000e+00 0.000000000e+00 0.000000000e+00))
3.16            	((3.277367123e-01 -1.985425429e-03 7.070433488e-20) (1.130918954e-01 -1.560654727e-04 -2.930849284e-20) (0.000000000e+00 0.000000000e+00 0.000000000e+00)) ((4.963563571e-04 8.193417808e-02 3.234237964e-13) (3.901636817e-05 2.827297385e-02 4.755965644e-05) (0.000000000e+00 0.000000000e+00 0.000000000e+00))
3.2             	((3.269776964e-01 -2.110018823e-03 7.068967977e-20) (1.128490002e-01 -1.857760044e-04 -2.919584359e-20) (0.000000000e+00 0.000000000e+00 0.000000000e+00)) ((5.275047057e-04 8.174442411e-02 3.554901599e-13) (4.644400109e-05 2.821225006e-02 4.874619868e-05) (0.000000000e+00 0.000000000e+00 0.000000000e+00))
3.24            	((3.263434810e-01 -2.267331722e-03 7.068349928e-20) (1.126122742e-01 -2.159500878e-04 -2.908324655e-20) (0.000000000e+00 0.000000000e+00 0.000000000e+00)) ((5.668329306e-04 8.158587024e-02 4.099357572e-13) (5.398752195e-05 2.815306855e-02 5.002587357e-05) (0.000000000e+00 0.000000000e+00 0.000000000e+00))
3.28            	((3.256686308e-01 -2.497920774e-03 7.069138696e-20) (1.123829610e-01 -2.476751366e-04 -2.897708937e-20) (0.000000000e+00 0.000000000e+00 0.000000000e+00)) ((6.244801934e-04 8.141715771e-02 4.488755288e-13) (6.191878415e-05 2.809574026e-02 5.137463619e-05) (0.000000000e+00 0.000000000e+00 0.000000000e+00))
3.32            	((3.249697367e-01 -2.624994720e-03 7.071112824e-20) (1.121571852e-01 -2.808881837e-04 -2.887716579e-20) (0.000000000e+00 0.000000000e+00 0.000000000e+00)) ((6.562486799e-04 8.124243417e-02 4.989316252e-13) (7.022204593e-05 2.803929631e-02 5.277110864e-05) (0.000000000e+00 0.000000000e+00 0.000000000e+00))
3.36            	((3.244325728e-01 -2.743171581e-03 7.071597993e-20) (1.119397497e-01 -3.129868748e-04 -2.878638100e-20) (0.000000000e+00 0.000000000e+00 0.000000000e+00)) ((6.857928953e-04 8.110814321e-02 5.472454087e-13) (7.824671871e-05 2.798493742e-02 5.417939077e-05) (0.000000000e+00 0.000000000e+00 0.000000000e+00))
3.4             	((3.239175761e-01 -2.825916385e-03 7.072388536e-20) (1.117292489e-01 -3.422756602e-04 -2.870393493e-20) (0.000000000e+00 0.000000000e+00 0.000000000e+00)) ((7.064790962e-04 8.097939403e-02 5.735305893e-13) (8.556891506e-05 2.793231223e-02 5.556682690e-05) (0.000000000e+00 0.000000000e+00 0.000000000e+00))
3.44            	((3.233730675e-01 -2.983121444e-03 7.072678402e-20) (1.115261231e-01 -3.748390785e-04 -2.862740386e-20) (0.000000000e+00 0.000000000e+00 0.000000000e+00)) ((7.457803609e-04 8.084326687e-02 5.895527122e-13) (9.370976962e-05 2.788153077e-02 5.691599928e-05) (0.000000000e+00 0.000000000e+00 0.000000000e+00))
3.48            	((3.228014482e-01 -3.071041996e-03 7.075403184e-20) (1.113270738e-01 -4.044076087e-04 -2.855688909e-20) (0.000000000e+00 0.000000000e+00 0.000000000e+00)) ((7.677604991e-04 8.070036206e-02 5.979333782e-13) (1.011019022e-04 2.783176845e-02 5.821052001e-05) (0.000000000e+00 0.000000000e+00 0.000000000e+00))
3.52            	((3.222449625e-01 -3.103017266e-03 7.079926381e-20) (1.111337095e-01 -4.320556837e-04 -2.849602975e-20) (0.000000000e+00 0.000000000e+00 0.000000000e+00)) ((7.757543164e-04 8.056124063e-02 6.201449944e-13) (1.080139209e-04 2.778342737e-02 5.941926275e-05) (0.000000000e+00 0.000000000e+00 0.000000000e+00))
3.56            	((3.218761381e-01 -3.146635043e-03 7.079465980e-20) (1.109498351e-01 -4.575932122e-04 -2.844729206e-20) (0.000000000e+00 0.000000000e+00 0.000000000e+00)) ((7.866587609e-04 8.046903451e-02 6.276474566e-13) (1.143983031e-04 2.773745878e-02 6.048932936e-05) (0.000000000e+00 0.000000000e+00 0.000000000e+00))
3.6             	((3.213155787e-01 -3.222916356e-03 7.082572297e-20) (1.107674489e-01 -4.829373577e-04 -2.840190027e-20) (0.000000000e+00 0.000000000e+00 0.000000000e+00)) ((8.057290891e-04 8.032889467e-02 6.274308330e-13) (1.207343394e-04 2.769186222e-02 6.138174813e-05) (0.000000000e+00 0.000000000e+00 0.000000000e+00))
3.64            	((3.207813964e-01 -3.144844443e-03 7.088176818e-20) (1.105895390e-01 -5.048705585e-04 -2.836739843e-20) (0.000000000e+00 0.000000000e+00 0.000000000e+00)) ((7.862111106e-04 8.019534911e-02 6.265669407e-13) (1.262176396e-04 2.764738475e-02 6.206192593e-05) (0.000000000e+00 0.000000000e+00 0.000000000e+00))